Protein
 1504
    1sD      GN    1   5.030   5.674   4.024  0.0563 -0.0200 -0.0113
    1sD      GC    2   5.107   5.803   4.063  0.3548  0.2304 -0.0116
    1sD     BCG    3   5.073   5.993   3.907 -0.2725 -0.2019  0.0843
    1sD    BOE1    4   4.985   6.029   3.816  0.1254  0.2104 -0.3949
    1sD    BOE2    5   5.186   6.004   3.840  0.0705 -0.1467 -0.3774
    1sD      GO    6   5.110   5.806   4.305 -0.1181  0.1712  0.0098
    2sA      GN    7   5.318   5.843   4.210 -0.3785  0.3432 -0.1516
    2sA      GC    8   5.387   5.858   4.337  0.2491  0.0434 -0.2767
    2sA      GO    9   5.243   5.980   4.486 -0.3257  0.1067 -0.2620
    3sE      GN   10   5.374   5.808   4.559  0.3947 -0.0676  0.0433
    3sE      GC   11   5.334   5.825   4.700 -0.4801 -0.0919  0.0632
    3sE     BCD   12   5.130   5.514   4.732 -0.0640  0.1234 -0.2353
    3sE    BOE1   13   5.027   5.483   4.662 -0.3052  0.1473  0.1118
    3sE    BOE2   14   5.234   5.441   4.714 -0.0263 -0.3127 -0.3147
    3sE      GO   15   5.533   5.946   4.792  0.1129 -0.1385  0.2724
    4sF      GN   16   5.327   5.993   4.849  0.2775  0.0223 -0.2746
    4sF      GC   17   5.361   6.093   4.942  0.1863 -0.0354 -0.3658
    4sF     BCG   18   5.162   6.210   5.059 -0.0761  0.3183 -0.1104
    4sF    BCE1   19   4.929   6.215   5.037  0.1283  0.0774 -0.5642
    4sF    BCE2   20   5.056   6.424   5.057  0.1204  0.3512  0.2295
    4sF      GO   21   5.543   6.054   5.096 -0.2997  0.0208 -0.2077
    5sR      GN   22   5.409   5.889   5.093  0.0411  0.3072 -0.0017
    5sR      GC   23   5.493   5.795   5.184 -0.0411  0.0063  0.4076
    5sR     BCG   24   5.480   5.874   5.425  0.0860  0.1345 -0.1868
    5sR     BCZ   25   5.383   5.776   5.740  0.1834  0.4226  0.0800
    5sR    BNN1   26   5.394   5.640   5.738 -0.0818 -0.2677 -0.0597
    5sR    BNN2   27   5.392   5.846   5.838 -0.3246 -0.3084  0.1846
    5sR      GO   28   5.475   5.566   5.102  0.1128 -0.1344 -0.0419
    6sHe     GN   29   5.681   5.660   5.143  0.3054 -0.2379  0.0169
    6sHe     GC   30   5.766   5.536   5.108  0.2131  0.0345 -0.0679
    6sHe    BCG   31   5.703   5.356   5.270 -0.0578 -0.2700  0.1403
    6sHe    BNE   32   5.592   5.380   5.458 -0.1616  0.0956  0.0391
    6sHe    BND   33   5.665   5.228   5.323 -0.0533 -0.2308  0.2688
    6sHe     GO   34   5.756   5.483   4.874  0.1863  0.1199 -0.1006
    7sD      GN   35   5.954   5.499   4.978  0.4068 -0.2040  0.1392
    7sD      GC   36   6.044   5.498   4.868 -0.0810  0.5395 -0.2432
    7sD     BCG   37   6.280   5.530   4.940  0.0388  0.1011 -0.1749
    7sD    BOE1   38   6.365   5.444   4.930  0.0713  0.1700 -0.4429
    7sD    BOE2   39   6.321   5.632   5.001 -0.0602  0.2194 -0.1035
    7sD      GO   40   5.982   5.337   4.715 -0.1047 -0.0281  0.1249
    8sS      GN   41   5.963   5.548   4.647  0.2867  0.1201 -0.0372
    8sS      GC   42   5.908   5.538   4.498 -0.2556  0.1336 -0.0990
    8sS     BOG   43   5.677   5.463   4.497 -0.0498 -0.1551 -0.2779
    8sS     BPG   44   5.586   5.454   4.504 -0.1325 -0.0212 -0.0992
    8sS      GO   45   6.039   5.694   4.371 -0.2020  0.1206 -0.2404
    9sG      GN   46   6.039   5.491   4.283 -0.0008 -0.0349  0.1608
    9sG      GC   47   6.117   5.546   4.178  0.0959 -0.0448 -0.0731
    9sG      GO   48   6.091   5.437   3.978 -0.3853  0.1263  0.1620
   10sY      GN   49   6.091   5.668   3.910  0.2421  0.0382 -0.1383
   10sY      GC   50   6.075   5.731   4.032 -0.0553 -0.4510  0.1165
   10sY     BCG   51   6.303   5.848   4.077  0.0401 -0.0561 -0.0932
   10sY    BCE2   52   6.451   5.905   4.257  0.1361  0.0175 -0.0174
   10sY    BCE1   53   6.528   5.862   4.030  0.0870 -0.1410  0.0761
   10sY      GO   54   5.909   5.913   4.007 -0.0776 -0.1205  0.0135
   11sE      GN   55   5.867   5.732   4.142  0.2350 -0.2133 -0.1916
   11sE      GC   56   5.714   5.768   4.182 -0.3943  0.1214 -0.4070
   11sE     BCD   57   5.496   5.500   4.012 -0.2987 -0.1212 -0.3996
   11sE    BOE1   58   5.511   5.538   3.889  0.3210  0.0300 -0.2876
   11sE    BOE2   59   5.433   5.463   4.082 -0.1216 -0.1368 -0.3411
   11sE      GO   60   5.691   5.889   4.400  0.1224 -0.1375  0.2992
   12sV      GN   61   5.638   5.997   4.200  0.0037 -0.5010 -0.3891
   12sV      GC   62   5.619   6.133   4.263  0.2091  0.0448  0.0712
   12sV     BCB   63   5.549   6.253   4.168  0.1027  0.2080  0.0448
   12sV      GO   64   5.500   6.125   4.480 -0.2443 -0.1221  0.4736
   13sHe     GN   65   5.729   6.160   4.527 -0.3638  0.3152  0.4378
   13sHe     GC   66   5.720   6.160   4.657  0.0051  0.1419 -0.1159
   13sHe    BCG   67   5.883   6.031   4.790 -0.6074  0.0892  0.1826
   13sHe    BNE   68   5.989   6.071   4.984  0.0547  0.1082  0.2369
   13sHe    BND   69   6.007   5.954   4.811  0.0158  0.1158  0.0381
   13sHe     GO   70   5.712   6.389   4.721 -0.1060  0.2253  0.1195
   14sHe     GN   71   5.539   6.263   4.758 -0.0027 -0.2091 -0.1521
   14sHe     GC   72   5.460   6.374   4.801 -0.1310 -0.0938 -0.1466
   14sHe    BCG   73   5.228   6.368   4.718  0.0746 -0.3977 -0.1482
   14sHe    BNE   74   5.159   6.416   4.518 -0.1144  0.0645 -0.2998
   14sHe    BND   75   5.104   6.318   4.694  0.2505 -0.0667 -0.1946
   14sHe     GO   76   5.483   6.405   5.040 -0.1045 -0.0434  0.3512
   15sQ      GN   77   5.510   6.601   4.920  0.1836  0.0180 -0.2804
   15sQ      GC   78   5.529   6.678   5.049  0.1380  0.1004 -0.0640
   15sQ     BCD   79   5.858   6.708   5.067 -0.0949  0.0563 -0.3981
   15sQ     BOD   80   5.850   6.787   5.142 -0.0754 -0.3285 -0.1578
   15sQ     BND   81   5.931   6.595   5.103  0.0171  0.2850  0.0381
   15sQ      GO   82   5.309   6.778   5.095  0.1317  0.2987 -0.1668
   16sK      GN   83   5.393   6.660   5.276 -0.1939 -0.2245  0.1170
   16sK      GC   84   5.299   6.684   5.368  0.4081  0.1397  0.0277
   16sK     BCG   85   5.151   6.489   5.371 -0.2065 -0.1817 -0.0104
   16sK     BCE   86   5.035   6.302   5.480 -0.1696  0.1367 -0.1626
   16sK      GO   87   5.353   6.867   5.527  0.1955  0.1526  0.3280
   17sL      GN   88   5.241   6.942   5.336 -0.2574 -0.1135  0.0867
   17sL      GC   89   5.256   7.084   5.357  0.4653  0.0933  0.0240
   17sL     BCG   90   5.472   7.132   5.282 -0.0144 -0.1265  0.0721
   17sL      GO   91   5.047   7.190   5.306 -0.3275 -0.0018 -0.1958
   18sV      GN   92   5.176   7.277   5.482 -0.0008  0.4150 -0.1813
   18sV      GC   93   5.092   7.385   5.499 -0.0175  0.2890 -0.3305
   18sV     BCB   94   5.058   7.393   5.651 -0.3177 -0.0609  0.2496
   18sV      GO   95   5.171   7.577   5.376  0.3730 -0.5439  0.1010
   19sF      GN   96   4.959   7.534   5.293 -0.0611  0.1975 -0.2072
   19sF      GC   97   4.966   7.623   5.198  0.1299  0.4370 -0.1448
   19sF     BCG   98   5.078   7.552   4.998 -0.1638 -0.1812 -0.2910
   19sF    BCE1   99   5.260   7.645   4.897 -0.0264 -0.0634  0.1443
   19sF    BCE2  100   5.273   7.414   4.956  0.1493 -0.3634 -0.0948
   19sF      GO  101   4.743   7.727   5.153 -0.0029 -0.0510  0.2919
   20sF      GN  102   4.908   7.863   5.230 -0.0514 -0.0738  0.0191
   20sF      GC  103   4.828   7.978   5.208  0.2879 -0.1314 -0.5096
   20sF     BCG  104   4.911   8.212   5.233  0.0575  0.3549  0.1870
   20sF    BCE1  105   5.071   8.305   5.395 -0.3113  0.0562  0.0897
   20sF    BCE2  106   4.839   8.292   5.448 -0.0637 -0.0887  0.0120
   20sF      GO  107   4.692   7.973   5.010 -0.1165  0.1415  0.1754
   21sA      GN  108   4.592   8.014   5.199  0.2403  0.0008 -0.0570
   21sA      GC  109   4.470   8.037   5.148  0.2289 -0.2314  0.2704
   21sA      GO  110   4.375   8.229   5.268 -0.1080  0.3908  0.1332
   22sE      GN  111   4.395   8.217   5.047 -0.5254  0.1570  0.2218
   22sE      GC  112   4.346   8.340   5.013 -0.1803 -0.0590 -0.3585
   22sE     BCD  113   4.438   8.366   4.652 -0.1962 -0.0617 -0.0123
   22sE    BOE1  114   4.498   8.454   4.571  0.4438  0.6828 -0.1780
   22sE    BOE2  115   4.436   8.256   4.677 -0.1519 -0.1711 -0.3442
   22sE      GO  116   4.142   8.385   5.141 -0.0894  0.0306 -0.2074
   23sD      GN  117   4.133   8.202   5.020  0.0884 -0.0271  0.1730
   23sD      GC  118   4.007   8.145   5.048  0.1969 -0.3564 -0.2205
   23sD     BCG  119   3.845   8.155   4.853  0.2521  0.0685 -0.0861
   23sD    BOE1  120   3.804   8.077   4.757 -0.2062 -0.1985  0.2151
   23sD    BOE2  121   3.775   8.263   4.847 -0.1733 -0.0131 -0.0222
   23sD      GO  122   4.026   7.978   5.227  0.0223 -0.2075 -0.0906
   24sV      GN  123   3.898   8.178   5.264  0.2114 -0.1912 -0.2499
   24sV      GC  124   3.848   8.131   5.391 -0.0069 -0.3946  0.3597
   24sV     BCB  125   3.760   8.258   5.406 -0.5776  0.3746 -0.1084
   24sV      GO  126   3.797   7.894   5.379  0.0982 -0.1378 -0.3246
   25sG      GN  127   3.919   7.964   5.560 -0.0384  0.1280  0.0803
   25sG      GC  128   3.914   7.830   5.626 -0.0158  0.2512  0.0087
   25sG      GO  129   3.883   7.843   5.865  0.4116 -0.0280  0.1686
   26sS      GN  130   3.734   7.734   5.742 -0.3585  0.0829  0.1664
   26sS      GC  131   3.662   7.704   5.868 -0.0949  0.1047 -0.1148
   26sS     BOG  132   3.545   7.916   5.908  0.0031  0.4505  0.1581
   26sS     BPG  133   3.455   7.922   5.960  0.2037 -0.0540  0.5246
   26sS      GO  134   3.582   7.476   5.857 -0.4076 -0.3891  0.0128
   27sN      GN  135   3.704   7.546   6.048  0.4098 -0.1447  0.2552
   27sN      GC  136   3.691   7.422   6.124 -0.1280 -0.3375 -0.3034
   27sN     BCG  137   3.467   7.389   6.210  0.1132 -0.1303 -0.0178
   27sN     BND  138   3.348   7.393   6.131  0.0635 -0.0830 -0.1289
   27sN     BOD  139   3.465   7.295   6.289  0.2377  0.1292 -0.0123
   27sN      GO  140   3.841   7.249   6.039 -0.0934 -0.1061 -0.1964
   28sK      GN  141   3.889   7.342   6.238 -0.1499  0.0863 -0.2061
   28sK      GC  142   4.008   7.268   6.264  0.0045  0.1367 -0.0312
   28sK     BCG  143   4.172   7.385   6.419  0.2851  0.2705 -0.0238
   28sK     BCE  144   4.412   7.405   6.487  0.1685 -0.0548  0.1556
   28sK      GO  145   3.983   7.038   6.216  0.1608 -0.2171 -0.2193
   29sG      GN  146   4.122   7.168   6.078  0.2873  0.0127 -0.0341
   29sG      GC  147   4.152   7.066   5.973 -0.0599  0.1110 -0.3320
   29sG      GO  148   4.243   7.184   5.802 -0.1174 -0.1732 -0.3681
   30sA      GN  149   4.376   7.057   5.920 -0.1902  0.5326 -0.1129
   30sA      GC  150   4.495   7.064   5.836  0.1800 -0.2897  0.0198
   30sA      GO  151   4.411   7.058   5.616 -0.4454  0.1679  0.2979
   31sI      GN  152   4.573   7.205   5.652  0.2446  0.0832 -0.0574
   31sI      GC  153   4.586   7.244   5.516  0.0250  0.0899 -0.2261
   31sI     BCG  154   4.588   7.471   5.561 -0.3915  0.0396  0.2645
   31sI      GO  155   4.747   7.113   5.402 -0.3886  0.0501  0.1050
   32sI      GN  156   4.551   7.117   5.266  0.0734 -0.4433 -0.5713
   32sI      GC  157   4.610   7.040   5.174  0.0841  0.3426  0.1811
   32sI     BCG  158   4.482   6.808   5.152 -0.2792 -0.4113  0.2757
   32sI      GO  159   4.718   7.177   4.995  0.4636  0.1704  0.0850
   33sG      GN  160   4.880   7.051   5.117 -0.1949  0.1785  0.1655
   33sG      GC  161   4.990   7.083   5.009  0.0905 -0.3715 -0.0986
   33sG      GO  162   5.140   6.905   4.970  0.1390 -0.3357 -0.1314
   34sL      GN  163   4.984   6.961   4.810  0.0644  0.3196  0.1167
   34sL      GC  164   5.038   6.861   4.701  0.2714 -0.4508 -0.2260
   34sL     BCG  165   4.903   6.662   4.717 -0.1330  0.3354 -0.0312
   34sL      GO  166   5.162   7.000   4.556 -0.0585  0.3718 -0.2178
   35sM      GN  167   5.252   6.844   4.702 -0.0729  0.0201  0.0988
   35sM      GC  168   5.380   6.866   4.651 -0.1847  0.0968 -0.2009
   35sM     BSD  169   5.564   7.148   4.807  0.1081  0.2020  0.1056
   35sM      GO  170   5.499   6.672   4.642 -0.0429  0.1645  0.2579
   36sV      GN  171   5.509   6.829   4.465 -0.2166 -0.0063 -0.0466
   36sV      GC  172   5.620   6.772   4.405 -0.3940  0.0620  0.4156
   36sV     BCB  173   5.579   6.731   4.252  0.2224 -0.0062  0.0483
   36sV      GO  174   5.816   6.901   4.492  0.1991 -0.2088  0.0654
   37sG      GN  175   5.809   6.694   4.547  0.0262 -0.3316 -0.1749
   37sG      GC  176   5.924   6.711   4.623  0.0372  0.1323 -0.2416
   37sG      GO  177   6.053   6.524   4.566  0.0736  0.1152 -0.0014
   38sG      GN  178   6.160   6.702   4.583  0.2094  0.1920  0.0350
   38sG      GC  179   6.281   6.639   4.560  0.2995 -0.1920  0.2571
   38sG      GO  180   6.388   6.578   4.759 -0.3127 -0.0760  0.0581
   39sV      GN  181   6.354   6.415   4.597 -0.2748  0.1852 -0.1979
   39sV      GC  182   6.401   6.284   4.674 -0.1329 -0.4106 -0.3245
   39sV     BCB  183   6.257   6.221   4.731  0.0448 -0.3419 -0.0427
   39sV      GO  184   6.512   6.155   4.524 -0.2922 -0.0924 -0.2926
   40sV      GN  185   6.631   6.222   4.709  0.0020 -0.0941 -0.1572
   40sV      GC  186   6.758   6.157   4.690 -0.2942 -0.2137  0.0896
   40sV     BCB  187   6.854   6.260   4.724 -0.0451  0.5027  0.6110
   40sV      GO  188   6.776   5.950   4.789 -0.2156 -0.2735 -0.3867
    1sD      GN  189   6.566   6.029   5.134 -0.2877 -0.1297  0.4208
    1sD      GC  190   6.532   6.186   5.142 -0.0226  0.0898 -0.0232
    1sD     BCG  191   6.337   6.209   5.292  0.4268 -0.0164 -0.3011
    1sD    BOE1  192   6.300   6.194   5.420 -0.1924  0.2937 -0.0542
    1sD    BOE2  193   6.239   6.236   5.210 -0.0716 -0.1936 -0.2078
    1sD      GO  194   6.716   6.316   5.135 -0.5424 -0.1777  0.0553
    2sA      GN  195   6.544   6.410   5.029 -0.2427  0.0350 -0.2190
    2sA      GC  196   6.597   6.545   5.000  0.2705  0.0988 -0.2321
    2sA      GO  197   6.417   6.689   5.059 -0.0127  0.0298  0.2328
    3sE      GN  198   6.616   6.697   5.142  0.1033 -0.2292 -0.3263
    3sE      GC  199   6.584   6.818   5.227 -0.2518  0.0202  0.2123
    3sE     BCD  200   6.702   6.623   5.523  0.1560  0.1017  0.0706
    3sE    BOE1  201   6.707   6.511   5.575 -0.0305 -0.0340 -0.2681
    3sE    BOE2  202   6.713   6.728   5.578  0.2241  0.0994 -0.1167
    3sE      GO  203   6.668   7.006   5.112 -0.0860 -0.0126  0.0377
    4sF      GN  204   6.453   6.997   5.125 -0.0781  0.0904  0.1016
    4sF      GC  205   6.437   7.106   5.018 -0.1152 -0.0191 -0.2619
    4sF     BCG  206   6.216   7.213   4.950 -0.1724 -0.1933  0.0645
    4sF    BCE1  207   6.025   7.351   5.038 -0.1086  0.2056  0.0206
    4sF    BCE2  208   5.993   7.163   4.868 -0.0232 -0.6419  0.0535
    4sF      GO  209   6.614   7.279   5.057 -0.2192 -0.0759 -0.2765
    5sR      GN  210   6.473   7.241   5.237 -0.0917  0.0557  0.0336
    5sR      GC  211   6.549   7.346   5.318 -0.2529  0.0359  0.1523
    5sR     BCG  212   6.426   7.548   5.341  0.1183  0.0053 -0.1627
    5sR     BCZ  213   6.527   7.837   5.153  0.4218  0.2556 -0.1018
    5sR    BNN1  214   6.615   7.776   5.207  0.0990  0.3623  0.3525
    5sR    BNN2  215   6.485   7.957   5.203  0.0167 -0.0582 -0.0240
    5sR      GO  216   6.700   7.246   5.452 -0.0014 -0.1681  0.1739
    6sHe     GN  217   6.775   7.363   5.285 -0.0365 -0.3215 -0.4504
    6sHe     GC  218   6.914   7.344   5.317 -0.2215  0.0639  0.3357
    6sHe    BCG  219   7.045   7.469   5.482 -0.3694  0.0606 -0.4237
    6sHe    BNE  220   7.195   7.644   5.436  0.2969  0.2857 -0.1491
    6sHe    BND  221   7.177   7.452   5.543  0.1949 -0.0020 -0.2010
    6sHe     GO  222   6.975   7.122   5.274 -0.4011 -0.0077  0.1419
    7sD      GN  223   7.084   7.298   5.176 -0.2982 -0.0901  0.4343
    7sD      GC  224   7.196   7.228   5.107  0.0735  0.0279 -0.0316
    7sD     BCG  225   7.158   7.075   4.936  0.0157 -0.2619 -0.2079
    7sD    BOE1  226   7.209   7.146   4.843 -0.1450  0.0073 -0.1859
    7sD    BOE2  227   7.197   6.953   4.953 -0.1356 -0.4252 -0.1048
    7sD      GO  228   7.390   7.361   5.098 -0.2998  0.1765  0.0449
    8sS      GN  229   7.375   7.218   5.258  0.1673 -0.1576 -0.2653
    8sS      GC  230   7.501   7.235   5.322 -0.0294 -0.2354 -0.2994
    8sS     BOG  231   7.459   7.132   5.546  0.4047 -0.3109  0.3007
    8sS     BPG  232   7.533   7.087   5.603  0.0363  0.2416  0.1247
    8sS      GO  233   7.674   7.231   5.156  0.1863  0.5429 -0.0384
    9sG      GN  234   7.665   7.400   5.295  0.2364  0.0731  0.0531
    9sG      GC  235   7.797   7.453   5.256  0.3187 -0.1090  0.1127
    9sG      GO  236   7.793   7.531   5.030  0.2030  0.0254  0.0612
   10sY      GN  237   7.910   7.703   5.143  0.1296  0.4383 -0.3256
   10sY      GC  238   7.919   7.655   5.292 -0.0169 -0.1933 -0.1660
   10sY     BCG  239   8.147   7.712   5.370 -0.2311  0.2183  0.2162
   10sY    BCE2  240   8.365   7.824   5.373 -0.1438  0.1005  0.2190
   10sY    BCE1  241   8.359   7.585   5.418 -0.2810 -0.2584 -0.0812
   10sY      GO  242   7.742   7.756   5.449 -0.0831  0.3014  0.0986
   11sE      GN  243   7.824   7.566   5.516 -0.1424  0.2753 -0.3011
   11sE      GC  244   7.751   7.548   5.654  0.5012 -0.2970  0.1141
   11sE     BCD  245   7.957   7.254   5.651 -0.3372 -0.0161 -0.0163
   11sE    BOE1  246   8.064   7.290   5.678 -0.0044  0.0847  0.0269
   11sE    BOE2  247   7.929   7.156   5.577 -0.3153 -0.2101  0.3548
   11sE      GO  248   7.739   7.747   5.757  0.2619 -0.0584  0.1574
   12sV      GN  249   7.536   7.629   5.740 -0.3886  0.0710  0.0617
   12sV      GC  250   7.452   7.734   5.806 -0.2056  0.0822 -0.2189
   12sV     BCB  251   7.390   7.834   5.709  0.0830  0.3129 -0.0773
   12sV      GO  252   7.264   7.648   5.934 -0.4141 -0.0451  0.1500
   13sHe     GN  253   7.420   7.765   6.067  0.0569  0.0128 -0.0721
   13sHe     GC  254   7.341   7.758   6.175 -0.1490 -0.1776 -0.1534
   13sHe    BCG  255   7.452   7.918   6.340  0.2162  0.3745  0.3173
   13sHe    BNE  256   7.597   8.092   6.313  0.0850  0.1770  0.1386
   13sHe    BND  257   7.433   8.012   6.426  0.1305 -0.2059  0.1324
   13sHe     GO  258   7.114   7.800   6.126 -0.0563  0.3345 -0.1100
   14sHe     GN  259   7.174   7.598   6.225  0.2379  0.0061  0.1693
   14sHe     GC  260   7.038   7.552   6.242  0.0881 -0.0308  0.1912
   14sHe    BCG  261   6.976   7.405   6.051 -0.1474 -0.0960 -0.1155
   14sHe    BNE  262   6.867   7.476   5.884 -0.1611 -0.0004  0.0868
   14sHe    BND  263   6.977   7.305   5.960 -0.0623  0.4079 -0.0246
   14sHe     GO  264   7.003   7.446   6.455  0.0696 -0.2145  0.1223
   15sQ      GN  265   6.865   7.615   6.419 -0.4290 -0.0405  0.1445
   15sQ      GC  266   6.809   7.625   6.561  0.1428  0.0271 -0.0769
   15sQ     BCD  267   7.117   7.715   6.698  0.2194  0.0797  0.1115
   15sQ     BOD  268   7.183   7.681   6.795  0.2218  0.0167  0.0640
   15sQ     BND  269   7.147   7.811   6.613  0.2293  0.0634  0.0708
   15sQ      GO  270   6.587   7.712   6.556  0.3477  0.3747  0.1987
   16sK      GN  271   6.620   7.496   6.644  0.2172 -0.2951  0.1374
   16sK      GC  272   6.476   7.461   6.676  0.1692  0.0342  0.1521
   16sK     BCG  273   6.472   7.206   6.747  0.1196 -0.0461 -0.2469
   16sK     BCE  274   6.464   6.938   6.764  0.3767  0.2322  0.1488
   16sK      GO  275   6.381   7.663   6.777  0.2457  0.2212  0.4883
   17sL      GN  276   6.261   7.559   6.615 -0.0479 -0.0856  0.2575
   17sL      GC  277   6.154   7.674   6.593 -0.0223 -0.2454 -0.1086
   17sL     BCG  278   6.114   7.759   6.353 -0.1992  0.0494 -0.1250
   17sL      GO  279   5.973   7.637   6.743  0.2697 -0.0524 -0.0708
   18sV      GN  280   6.094   7.817   6.782  0.1002 -0.2844 -0.2131
   18sV      GC  281   6.013   7.868   6.890 -0.2726 -0.2803 -0.0924
   18sV     BCB  282   6.089   7.997   6.946  0.4915 -0.1293 -0.1807
   18sV      GO  283   5.782   7.847   6.815  0.2628  0.0297 -0.1566
   19sF      GN  284   5.819   7.719   6.994 -0.0861 -0.2743  0.2075
   19sF      GC  285   5.695   7.631   6.979 -0.2531 -0.0823 -0.3833
   19sF     BCG  286   5.660   7.542   7.208 -0.0296  0.4108 -0.3506
   19sF    BCE1  287   5.593   7.315   7.252 -0.0909 -0.1835 -0.2334
   19sF    BCE2  288   5.836   7.374   7.261  0.1460 -0.2753  0.0984
   19sF      GO  289   5.510   7.764   6.909 -0.0916 -0.1123  0.1292
   20sF      GN  290   5.593   7.601   6.772 -0.0598  0.3009  0.2651
   20sF      GC  291   5.508   7.626   6.654  0.0296  0.2267 -0.0901
   20sF     BCG  292   5.568   7.807   6.495 -0.0858 -0.1863 -0.0551
   20sF    BCE1  293   5.777   7.911   6.414  0.2621  0.2025  0.0194
   20sF    BCE2  294   5.620   8.031   6.555  0.1046 -0.4568  0.0424
   20sF      GO  295   5.460   7.414   6.550  0.5070 -0.0629  0.2011
   21sA      GN  296   5.271   7.543   6.602  0.1373  0.6773  0.1628
   21sA      GC  297   5.171   7.437   6.548 -0.1117 -0.0195 -0.0462
   21sA      GO  298   4.994   7.551   6.433  0.1891  0.1471 -0.0065
   22sE      GN  299   5.109   7.362   6.325 -0.1167 -0.3605 -0.1412
   22sE      GC  300   5.027   7.368   6.206  0.3593  0.0803 -0.1244
   22sE     BCD  301   5.148   7.666   6.062 -0.1217  0.1477  0.0745
   22sE    BOE1  302   5.211   7.669   5.953  0.2169 -0.2862  0.0243
   22sE    BOE2  303   5.193   7.741   6.144 -0.1898  0.0031 -0.2466
   22sE      GO  304   4.961   7.159   6.112 -0.4651  0.0213  0.0276
   23sD      GN  305   5.188   7.181   6.124  0.0490 -0.0113  0.4184
   23sD      GC  306   5.224   7.058   6.040  0.0601 -0.1294  0.0612
   23sD     BCG  307   5.461   7.046   5.997  0.1143 -0.1440 -0.2582
   23sD    BOE1  308   5.554   7.081   6.076 -0.2515  0.2137 -0.0603
   23sD    BOE2  309   5.487   7.017   5.899  0.1585 -0.1159  0.2025
   23sD      GO  310   5.090   6.883   6.105 -0.1124  0.0405 -0.1567
   24sV      GN  311   5.086   6.931   5.882  0.3337 -0.1432  0.1511
   24sV      GC  312   4.987   6.833   5.853 -0.2115 -0.1372  0.5640
   24sV     BCB  313   4.892   6.909   5.754  0.0011 -0.2484 -0.0187
   24sV      GO  314   5.092   6.618   5.767  0.4277 -0.1671 -0.2772
   25sG      GN  315   4.970   6.577   5.938 -0.3999 -0.5519 -0.3626
   25sG      GC  316   5.005   6.435   5.943  0.3594 -0.2702 -0.0297
   25sG      GO  317   5.241   6.406   6.026  0.0500 -0.0208 -0.0831
   26sS      GN  318   5.084   6.247   6.069  0.5588 -0.0962 -0.0119
   26sS      GC  319   5.153   6.144   6.178  0.0867  0.4005  0.3814
   26sS     BOG  320   4.967   6.003   6.210  0.0704 -0.1738  0.2057
   26sS     BPG  321   4.985   5.902   6.228 -0.2605  0.2496 -0.0205
   26sS      GO  322   5.394   6.102   6.116 -0.1274  0.1717  0.0682
   27sN      GN  323   5.354   6.187   6.319  0.4166  0.0572  0.2151
   27sN      GC  324   5.476   6.164   6.366 -0.0899  0.2208 -0.1072
   27sN     BCG  325   5.525   5.927   6.421 -0.2714  0.0649  0.2198
   27sN     BND  326   5.445   5.888   6.539 -0.4569  0.2875  0.4089
   27sN     BOD  327   5.539   5.834   6.337  0.1817 -0.5308  0.6040
   27sN      GO  328   5.637   6.317   6.248  0.5082  0.1836 -0.3026
   28sK      GN  329   5.675   6.294   6.470  0.0282  0.0709 -0.0328
   28sK      GC  330   5.777   6.393   6.487  0.0417  0.1854 -0.1320
   28sK     BCG  331   5.845   6.396   6.725 -0.3749 -0.0278 -0.1508
   28sK     BCE  332   5.889   6.404   6.995 -0.0958  0.2305  0.5347
   28sK      GO  333   5.928   6.390   6.278 -0.0384 -0.1511 -0.1203
   29sG      GN  334   5.848   6.588   6.373  0.1481  0.1307 -0.1146
   29sG      GC  335   5.904   6.688   6.278  0.2738  0.4421 -0.1497
   29sG      GO  336   5.953   6.887   6.391 -0.0169  0.1035 -0.3193
   30sA      GN  337   6.118   6.782   6.280 -0.2420  0.0250 -0.2705
   30sA      GC  338   6.217   6.874   6.339 -0.0573 -0.0603  0.2362
   30sA      GO  339   6.251   7.033   6.174 -0.5234  0.0210  0.4441
   31sI      GN  340   6.189   7.106   6.380  0.1360 -0.1509 -0.0280
   31sI      GC  341   6.167   7.255   6.336 -0.0540  0.0055  0.2371
   31sI     BCG  342   5.912   7.332   6.350 -0.3613  0.3273 -0.0373
   31sI      GO  343   6.356   7.371   6.401 -0.5266 -0.1438  0.2624
   32sI      GN  344   6.337   7.375   6.189  0.1988  0.0237 -0.0730
   32sI      GC  345   6.467   7.456   6.158 -0.2241 -0.0290 -0.0789
   32sI     BCG  346   6.638   7.266   6.171  0.2374  0.1206 -0.2629
   32sI      GO  347   6.428   7.597   5.994 -0.1352 -0.0847  0.1883
   33sG      GN  348   6.576   7.664   6.168  0.0664  0.0485  0.2919
   33sG      GC  349   6.620   7.811   6.100  0.4066  0.3940 -0.0764
   33sG      GO  350   6.858   7.833   6.139  0.2839 -0.1603  0.1048
   34sL      GN  351   6.764   7.873   5.935 -0.1698 -0.3426 -0.0835
   34sL      GC  352   6.887   7.939   5.882  0.3199 -0.0876  0.2957
   34sL     BCG  353   6.899   7.789   5.680  0.3593 -0.4260 -0.3660
   34sL      GO  354   6.877   8.185   5.906  0.5019 -0.0371 -0.0197
   35sM      GN  355   7.043   8.084   5.997 -0.1081  0.0743  0.6785
   35sM      GC  356   7.116   8.207   6.037  0.0583 -0.0709 -0.3925
   35sM     BSD  357   6.973   8.198   6.388 -0.1993  0.5418 -0.0856
   35sM      GO  358   7.349   8.222   6.020  0.1280  0.0973  0.3472
   36sV      GN  359   7.202   8.367   5.894 -0.3569  0.1560  0.1319
   36sV      GC  360   7.304   8.437   5.816  0.1915  0.0577  0.3454
   36sV     BCB  361   7.193   8.543   5.744  0.2567 -0.0584 -0.4760
   36sV      GO  362   7.501   8.469   5.955 -0.0367 -0.1244  0.3398
   37sG      GN  363   7.521   8.335   5.773  0.0495  0.0856  0.3206
   37sG      GC  364   7.659   8.307   5.772 -0.3450 -0.0837  0.0738
   37sG      GO  365   7.712   8.171   5.957  0.2626 -0.1288 -0.1687
   38sG      GN  366   7.807   8.120   5.767  0.1442  0.0897 -0.2451
   38sG      GC  367   7.885   7.994   5.830 -0.0694 -0.0969  0.0865
   38sG      GO  368   7.980   8.055   6.031  0.1645  0.3490 -0.1974
   39sV      GN  369   7.860   7.853   6.030 -0.0137  0.1021  0.2940
   39sV      GC  370   7.900   7.806   6.152  0.3153 -0.0593  0.2299
   39sV     BCB  371   7.834   7.670   6.141  0.2417  0.0301 -0.3188
   39sV      GO  372   8.138   7.832   6.207  0.0818 -0.2198  0.0166
   40sV      GN  373   7.991   7.942   6.338 -0.0204 -0.0699  0.0498
   40sV      GC  374   8.091   7.996   6.422  0.0476 -0.1420 -0.0258
   40sV     BCB  375   8.071   8.154   6.443  0.0169  0.1257  0.1104
   40sV      GO  376   8.128   7.876   6.628 -0.5545 -0.1513 -0.0645
    1sD      GN  377   7.604   5.656   4.665 -0.1892 -0.1638 -0.2609
    1sD      GC  378   7.522   5.541   4.617  0.1120 -0.0328 -0.1586
    1sD     BCG  379   7.357   5.447   4.778  0.0853  0.4982  0.5753
    1sD    BOE1  380   7.335   5.331   4.812 -0.0819  0.2052 -0.0007
    1sD    BOE2  381   7.229   5.491   4.759  0.1191 -0.4532  0.0694
    1sD      GO  382   7.462   5.574   4.389 -0.0601 -0.3100  0.4429
    2sA      GN  383   7.441   5.362   4.446  0.3318  0.3761  0.1883
    2sA      GC  384   7.410   5.301   4.305  0.0007 -0.1163 -0.3700
    2sA      GO  385   7.153   5.305   4.305  0.1813  0.0246  0.0156
    3sE      GN  386   7.256   5.388   4.104  0.0021 -0.1170 -0.4285
    3sE      GC  387   7.135   5.419   4.034  0.1183  0.0361  0.1325
    3sE     BCD  388   7.201   5.780   3.972 -0.1966 -0.0513 -0.0130
    3sE    BOE1  389   7.119   5.822   3.904 -0.2517 -0.2705 -0.0588
    3sE    BOE2  390   7.255   5.820   4.078 -0.2851  0.2211 -0.0937
    3sE      GO  391   7.068   5.221   3.907 -0.1555  0.0433  0.3300
    4sF      GN  392   6.920   5.384   3.919  0.0607 -0.1798 -0.3353
    4sF      GC  393   6.825   5.328   3.819 -0.1998 -0.1984 -0.0450
    4sF     BCG  394   6.584   5.375   3.778  0.1813  0.0355 -0.0657
    4sF    BCE1  395   6.376   5.509   3.774  0.0318 -0.0626  0.1171
    4sF    BCE2  396   6.365   5.269   3.725 -0.1249 -0.2847  0.1066
    4sF      GO  397   6.932   5.241   3.610 -0.0567 -0.2794  0.4981
    5sR      GN  398   7.040   5.414   3.683 -0.2546 -0.0684 -0.0057
    5sR      GC  399   7.147   5.411   3.570 -0.1295 -0.0117 -0.2024
    5sR     BCG  400   7.100   5.514   3.338 -0.5848 -0.0476 -0.2058
    5sR     BCZ  401   7.074   5.573   2.991 -0.2232 -0.1281 -0.2806
    5sR    BNN1  402   7.039   5.703   2.965  0.1621 -0.0115 -0.4129
    5sR    BNN2  403   7.169   5.498   2.977 -0.1359  0.2253 -0.2750
    5sR      GO  404   7.369   5.471   3.673  0.0359 -0.0398 -0.3577
    6sHe     GN  405   7.391   5.296   3.533  0.3559  0.0683  0.1837
    6sHe     GC  406   7.531   5.261   3.560 -0.1162 -0.0208  0.5188
    6sHe    BCG  407   7.683   5.452   3.512 -0.1666  0.2112  0.2944
    6sHe    BNE  408   7.713   5.552   3.309  0.1519  0.6383  0.1724
    6sHe    BND  409   7.722   5.576   3.526 -0.0008  0.2150  0.1496
    6sHe     GO  410   7.566   5.172   3.773 -0.0633  0.4923 -0.1283
    7sD      GN  411   7.666   5.053   3.611  0.4294 -0.0346  0.2587
    7sD      GC  412   7.712   4.958   3.681 -0.2585 -0.0997  0.0213
    7sD     BCG  413   7.659   4.749   3.596 -0.0635 -0.2300  0.0589
    7sD    BOE1  414   7.720   4.669   3.650  0.1102 -0.0900 -0.2205
    7sD    BOE2  415   7.547   4.708   3.534  0.1009  0.4584 -0.1474
    7sD      GO  416   7.940   5.015   3.729  0.2240 -0.0496  0.0591
    8sS      GN  417   7.786   4.994   3.901  0.0391 -0.1242  0.3119
    8sS      GC  418   7.879   5.044   4.004  0.3641  0.0027 -0.3932
    8sS     BOG  419   7.753   5.076   4.215  0.0257 -0.1057  0.0908
    8sS     BPG  420   7.804   5.121   4.297 -0.3284  0.5239  0.1687
    8sS      GO  421   8.082   4.953   3.984  0.0566 -0.1528 -0.1167
    9sG      GN  422   8.054   5.171   3.992 -0.1350  0.0026  0.5143
    9sG      GC  423   8.195   5.199   3.970 -0.3955 -0.1870 -0.1805
    9sG      GO  424   8.296   5.134   3.756  0.4047 -0.2285  0.1396
   10sY      GN  425   8.373   5.369   3.791  0.2007  0.1544 -0.2054
   10sY      GC  426   8.319   5.402   3.925 -0.1680  0.0134 -0.1323
   10sY     BCG  427   8.495   5.526   4.044  0.1470  0.1877 -0.0981
   10sY    BCE2  428   8.442   5.752   4.143 -0.0271  0.0404 -0.2426
   10sY    BCE1  429   8.678   5.670   4.095  0.0937 -0.2459  0.1834
   10sY      GO  430   8.099   5.508   3.919 -0.3099 -0.1295 -0.1729
   11sE      GN  431   8.162   5.445   4.143 -0.1857 -0.0260 -0.2336
   11sE      GC  432   8.046   5.510   4.204  0.1258  0.0271  0.4672
   11sE     BCD  433   8.062   5.429   4.563  0.0123  0.1168 -0.2351
   11sE    BOE1  434   7.952   5.392   4.594  0.0427  0.0221  0.1619
   11sE    BOE2  435   8.110   5.535   4.598  0.2682  0.0776  0.1265
   11sE      GO  436   8.002   5.712   4.097  0.1006 -0.4319  0.3658
   12sV      GN  437   7.839   5.565   4.108 -0.1213 -0.2266  0.1968
   12sV      GC  438   7.725   5.672   4.068  0.0735 -0.0793  0.0375
   12sV     BCB  439   7.649   5.595   3.967  0.1441  0.0146 -0.4300
   12sV      GO  440   7.628   5.778   4.277  0.0029 -0.2713  0.2185
   13sHe     GN  441   7.737   5.932   4.147 -0.4494 -0.4633  0.0488
   13sHe     GC  442   7.716   6.062   4.247  0.3445  0.8623 -0.1266
   13sHe    BCG  443   7.868   6.037   4.441 -0.0298  0.1025  0.0174
   13sHe    BNE  444   8.028   5.886   4.422 -0.2547  0.3464  0.0949
   13sHe    BND  445   7.899   5.991   4.551  0.3932 -0.1091 -0.2397
   13sHe     GO  446   7.681   6.261   4.163  0.2329 -0.4106 -0.2226
   14sHe     GN  447   7.501   6.133   4.222 -0.4307  0.0461 -0.2176
   14sHe     GC  448   7.391   6.227   4.185  0.0467  0.1010 -0.0522
   14sHe    BCG  449   7.359   6.220   3.942 -0.1456  0.0370 -0.0508
   14sHe    BNE  450   7.273   6.326   3.784 -0.2317  0.2298  0.0912
   14sHe    BND  451   7.423   6.184   3.829 -0.1992 -0.2489  0.1433
   14sHe     GO  452   7.194   6.194   4.331  0.0917 -0.1165 -0.0823
   15sQ      GN  453   7.235   6.402   4.257  0.2502 -0.0332 -0.2786
   15sQ      GC  454   7.105   6.449   4.304  0.0361 -0.1348 -0.0056
   15sQ     BCD  455   7.159   6.677   4.565  0.1416  0.2774  0.1412
   15sQ     BOD  456   7.218   6.587   4.619  0.2104 -0.1133 -0.4581
   15sQ     BND  457   7.122   6.802   4.580  0.0318  0.1106  0.2126
   15sQ      GO  458   6.951   6.428   4.128  0.0818  0.1096  0.0677
   16sK      GN  459   6.904   6.327   4.325 -0.4634  0.1113  0.2883
   16sK      GC  460   6.790   6.266   4.286  0.0715 -0.2775 -0.0767
   16sK     BCG  461   6.831   6.025   4.341  0.2165 -0.1880 -0.1801
   16sK     BCE  462   6.954   5.826   4.398  0.1433  0.2788 -0.2731
   16sK      GO  463   6.615   6.411   4.355 -0.0963  0.1143  0.2913
   17sL      GN  464   6.599   6.318   4.144 -0.1508 -0.2497  0.2649
   17sL      GC  465   6.478   6.400   4.093 -0.0807 -0.2090  0.1937
   17sL     BCG  466   6.480   6.636   4.035 -0.2629 -0.1359 -0.3265
   17sL      GO  467   6.336   6.241   3.958  0.1764 -0.1698  0.0016
   18sV      GN  468   6.250   6.295   4.178  0.1910 -0.2394 -0.0795
   18sV      GC  469   6.113   6.240   4.150 -0.0866  0.3079 -0.4875
   18sV     BCB  470   6.130   6.156   4.284  0.4528 -0.0088 -0.2396
   18sV      GO  471   5.981   6.421   4.074 -0.2852  0.0050  0.2262
   19sF      GN  472   5.996   6.247   3.926  0.0739  0.2176  0.0729
   19sF      GC  473   5.934   6.298   3.808 -0.1822 -0.2766  0.1477
   19sF     BCG  474   6.080   6.427   3.646  0.0791 -0.0234  0.1632
   19sF    BCE1  475   6.293   6.396   3.535  0.0197 -0.0324 -0.4229
   19sF    BCE2  476   6.217   6.619   3.617 -0.1236  0.4059 -0.1199
   19sF      GO  477   5.792   6.135   3.684  0.1812 -0.3597 -0.0861
   20sF      GN  478   5.709   6.340   3.735 -0.0104  0.2014 -0.1430
   20sF      GC  479   5.583   6.315   3.683  0.0096 -0.2263  0.0562
   20sF     BCG  480   5.362   6.375   3.818 -0.5247  0.2540 -0.1470
   20sF    BCE1  481   5.141   6.473   3.774 -0.1985 -0.1593 -0.1575
   20sF    BCE2  482   5.340   6.607   3.851  0.2526  0.2057 -0.2372
   20sF      GO  483   5.588   6.389   3.456  0.1919 -0.1965  0.4313
   21sA      GN  484   5.547   6.185   3.509 -0.0274 -0.3810  0.2706
   21sA      GC  485   5.535   6.140   3.383  0.3595  0.0031  0.1198
   21sA      GO  486   5.285   6.134   3.299 -0.2865 -0.0917 -0.1861
   22sE      GN  487   5.434   6.282   3.204  0.4830  0.1929  0.1117
   22sE      GC  488   5.332   6.354   3.123 -0.0333  0.0890 -0.0857
   22sE     BCD  489   5.624   6.575   3.048  0.3266  0.0035 -0.1927
   22sE    BOE1  490   5.632   6.666   3.124  0.0313 -0.0526  0.1763
   22sE    BOE2  491   5.675   6.482   3.006 -0.2365 -0.1929  0.0902
   22sE      GO  492   5.156   6.215   3.026 -0.3787  0.3862  0.5175
   23sD      GN  493   5.372   6.238   2.923  0.2175  0.0681  0.0411
   23sD      GC  494   5.347   6.144   2.810 -0.2959 -0.2849 -0.0373
   23sD     BCG  495   5.372   6.259   2.566 -0.0708 -0.1333 -0.3761
   23sD    BOE1  496   5.487   6.318   2.554 -0.2082 -0.0180 -0.0626
   23sD    BOE2  497   5.348   6.199   2.456 -0.2716  0.0605  0.4820
   23sD      GO  498   5.447   5.926   2.864  0.2166 -0.1178  0.1152
   24sV      GN  499   5.234   5.949   2.806  0.3562 -0.0425  0.5805
   24sV      GC  500   5.193   5.804   2.820 -0.1714  0.0940 -0.2123
   24sV     BCB  501   5.061   5.829   2.912  0.2176  0.1901  0.3132
   24sV      GO  502   5.199   5.671   2.616  0.3786 -0.1461  0.0371
   25sG      GN  503   5.342   5.621   2.786  0.1160  0.2479  0.3801
   25sG      GC  504   5.412   5.511   2.701 -0.1055 -0.2292  0.0329
   25sG      GO  505   5.475   5.338   2.847 -0.0627 -0.0569 -0.2589
   26sS      GN  506   5.336   5.285   2.691 -0.3172  0.0101  0.0734
   26sS      GC  507   5.332   5.135   2.731  0.1939 -0.0242 -0.0799
   26sS     BOG  508   5.178   5.043   2.584  0.2989  0.2966  0.1052
   26sS     BPG  509   5.110   4.966   2.554  0.3330 -0.5280 -0.0357
   26sS      GO  510   5.547   5.055   2.826 -0.1422 -0.3805  0.1105
   27sN      GN  511   5.368   5.030   2.952  0.1092  0.0778 -0.3212
   27sN      GC  512   5.442   4.982   3.064  0.0291 -0.0261  0.1788
   27sN     BCG  513   5.489   4.735   3.040  0.0458 -0.0581  0.2981
   27sN     BND  514   5.612   4.733   3.041 -0.2582 -0.0052 -0.0598
   27sN     BOD  515   5.380   4.679   3.049  0.0395  0.2060 -0.0052
   27sN      GO  516   5.576   5.154   3.144  0.0023 -0.3217 -0.0140
   28sK      GN  517   5.439   5.066   3.297 -0.1104  0.0542 -0.2413
   28sK      GC  518   5.486   5.167   3.405  0.0965  0.3392  0.1825
   28sK     BCG  519   5.315   5.142   3.592 -0.3639  0.2997 -0.1685
   28sK     BCE  520   5.158   5.183   3.773 -0.2236 -0.4331 -0.3429
   28sK      GO  521   5.732   5.187   3.378 -0.0850 -0.0687  0.1512
   29sG      GN  522   5.620   5.384   3.390 -0.0285 -0.0442 -0.2948
   29sG      GC  523   5.729   5.468   3.386 -0.1799  0.4006 -0.0521
   29sG      GO  524   5.698   5.667   3.514 -0.0986 -0.0112 -0.0730
   30sA      GN  525   5.899   5.561   3.520  0.3499 -0.4313  0.3331
   30sA      GC  526   5.951   5.672   3.606 -0.2929 -0.0023  0.0459
   30sA      GO  527   6.194   5.697   3.519  0.2483  0.1866 -0.0381
   31sI      GN  528   6.069   5.871   3.555 -0.1281  0.1410 -0.1395
   31sI      GC  529   6.164   5.968   3.526 -0.3342  0.2261  0.2305
   31sI     BCG  530   6.089   6.098   3.338  0.3642 -0.4820  0.3189
   31sI      GO  531   6.293   6.043   3.705 -0.0811 -0.2546 -0.2861
   32sI      GN  532   6.415   5.966   3.524  0.3319 -0.0455 -0.0856
   32sI      GC  533   6.540   6.002   3.572  0.1035 -0.3440 -0.2539
   32sI     BCG  534   6.651   5.792   3.600  0.1528 -0.1595  0.2189
   32sI      GO  535   6.597   6.219   3.472 -0.0643 -0.2304 -0.3204
   33sG      GN  536   6.619   6.202   3.700  0.0232  0.3984  0.2917
   33sG      GC  537   6.649   6.337   3.709 -0.0545 -0.0987 -0.3610
   33sG      GO  538   6.818   6.366   3.869 -0.0974 -0.1786  0.1028
   34sL      GN  539   6.826   6.463   3.677 -0.3040 -0.0470 -0.3520
   34sL      GC  540   6.957   6.524   3.700  0.1408 -0.0700 -0.0507
   34sL     BCG  541   7.031   6.416   3.501 -0.3101  0.1936  0.2260
   34sL      GO  542   6.912   6.749   3.785  0.2187 -0.2008  0.2294
   35sM      GN  543   7.038   6.628   3.903  0.0448 -0.2031 -0.1377
   35sM      GC  544   7.060   6.729   4.010 -0.0235 -0.1270  0.0585
   35sM     BSD  545   6.804   6.781   4.274 -0.2515 -0.1604  0.0972
   35sM      GO  546   7.280   6.718   4.110  0.1748  0.1419  0.1436
   36sV      GN  547   7.236   6.912   4.021 -0.1946 -0.2086 -0.1252
   36sV      GC  548   7.373   6.962   4.048 -0.0468  0.0491 -0.3830
   36sV     BCB  549   7.358   7.105   4.005 -0.2729  0.0722 -0.3678
   36sV      GO  550   7.426   6.873   4.261 -0.1560  0.1461 -0.0029
   37sG      GN  551   7.570   6.805   4.092 -0.0481  0.1214  0.4358
   37sG      GC  552   7.665   6.699   4.169  0.1609  0.0527  0.2170
   37sG      GO  553   7.718   6.765   4.388  0.2235  0.2596  0.5202
   38sG      GN  554   7.587   6.584   4.343 -0.1231  0.3735 -0.0099
   38sG      GC  555   7.552   6.539   4.486 -0.0838 -0.4752  0.0776
   38sG      GO  556   7.567   6.307   4.510  0.1330 -0.1130 -0.2397
   39sV      GN  557   7.695   6.450   4.636  0.4895 -0.1375  0.0487
   39sV      GC  558   7.747   6.352   4.726 -0.0847  0.0029 -0.1795
   39sV     BCB  559   7.907   6.389   4.747 -0.2197  0.3621  0.1118
   39sV      GO  560   7.592   6.350   4.919 -0.3991  0.4729  0.4043
   40sV      GN  561   7.590   6.157   4.791 -0.0161 -0.1311  0.0059
   40sV      GC  562   7.478   6.089   4.862 -0.0072  0.1035  0.4759
   40sV     BCB  563   7.359   6.076   4.741  0.2128  0.0516 -0.5367
   40sV      GO  564   7.572   5.934   5.009  0.0401  0.2781  0.2230
    1sD      GN  565   4.078   7.218   7.609  0.0866  0.1268  0.0401
    1sD      GC  566   4.030   7.054   7.642  0.0978 -0.3032  0.1508
    1sD     BCG  567   4.024   6.963   7.411  0.2125  0.1542  0.2542
    1sD    BOE1  568   4.109   6.957   7.315 -0.1725 -0.1860 -0.5114
    1sD    BOE2  569   3.953   6.859   7.427  0.1686 -0.1500 -0.2091
    1sD      GO  570   4.146   6.962   7.835  0.1236 -0.1463  0.1550
    2sA      GN  571   3.928   6.916   7.825 -0.2460 -0.0258  0.0056
    2sA      GC  572   3.918   6.841   7.948 -0.2552  0.1251  0.1283
    2sA      GO  573   4.124   6.695   7.960 -0.1634 -0.0280  0.1892
    3sE      GN  574   4.077   6.794   8.162 -0.0833 -0.0874  0.1520
    3sE      GC  575   4.181   6.751   8.216  0.1845 -0.0226  0.0121
    3sE     BCD  576   4.162   6.906   8.556 -0.1713 -0.2249  0.2025
    3sE    BOE1  577   4.178   7.031   8.564 -0.0807  0.0232  0.1977
    3sE    BOE2  578   4.232   6.827   8.569 -0.0391  0.1407 -0.1419
    3sE      GO  579   4.228   6.533   8.131 -0.0058  0.0657 -0.0319
    4sF      GN  580   4.392   6.671   8.122  0.1917 -0.1341  0.1776
    4sF      GC  581   4.486   6.571   8.050 -0.0889  0.2973  0.1299
    4sF     BCG  582   4.727   6.633   8.027  0.1532 -0.2312 -0.0589
    4sF    BCE1  583   4.855   6.847   8.013  0.1554 -0.1381  0.1573
    4sF    BCE2  584   4.920   6.681   8.165 -0.0125  0.0733  0.0189
    4sF      GO  585   4.477   6.333   8.129 -0.0389 -0.0473 -0.1234
    5sR      GN  586   4.504   6.464   8.307  0.4376 -0.4062  0.1295
    5sR      GC  587   4.503   6.353   8.415 -0.0547 -0.1525 -0.1599
    5sR     BCG  588   4.607   6.460   8.631  0.2089 -0.2382  0.4623
    5sR     BCZ  589   4.890   6.449   8.809  0.1164  0.2918  0.0108
    5sR    BNN1  590   4.853   6.546   8.888  0.0215  0.0175 -0.2198
    5sR    BNN2  591   4.973   6.360   8.845 -0.0255  0.2970  0.1086
    5sR      GO  592   4.343   6.197   8.375  0.0003  0.2581  0.1499
    6sHe     GN  593   4.555   6.125   8.401 -0.3576 -0.1607  0.0195
    6sHe     GC  594   4.528   5.985   8.382 -0.3721 -0.0425  0.2827
    6sHe    BCG  595   4.394   5.822   8.528 -0.0513 -0.1536  0.0997
    6sHe    BNE  596   4.237   5.689   8.502  0.3801  0.1705 -0.2932
    6sHe    BND  597   4.392   5.745   8.643 -0.0487 -0.0499 -0.5177
    6sHe     GO  598   4.466   5.934   8.154  0.0193 -0.0877  0.3190
    7sD      GN  599   4.612   5.792   8.234 -0.7937  0.0875 -0.2097
    7sD      GC  600   4.622   5.697   8.126 -0.3805  0.0235  0.5143
    7sD     BCG  601   4.845   5.685   8.027  0.0915  0.1399  0.1732
    7sD    BOE1  602   4.837   5.778   7.931  0.1759 -0.1239 -0.0228
    7sD    BOE2  603   4.926   5.595   8.023 -0.0431 -0.2328  0.6181
    7sD      GO  604   4.484   5.514   8.168 -0.1455 -0.1150  0.1685
    8sS      GN  605   4.429   5.649   7.988 -0.1175  0.2169  0.3684
    8sS      GC  606   4.317   5.558   7.941 -0.1378 -0.4721  0.1166
    8sS     BOG  607   4.197   5.665   7.779 -0.0106 -0.1330 -0.0710
    8sS     BPG  608   4.138   5.736   7.772  0.5266 -0.2319  0.3916
    8sS      GO  609   4.371   5.312   7.950 -0.0272  0.0150  0.0515
    9sG      GN  610   4.211   5.399   8.102  0.3044  0.0129  0.0589
    9sG      GC  611   4.170   5.258   8.155 -0.1883 -0.1808 -0.3107
    9sG      GO  612   4.369   5.213   8.296  0.3023  0.5087  0.2535
   10sY      GN  613   4.174   5.193   8.446 -0.1547 -0.0205 -0.0713
   10sY      GC  614   4.062   5.213   8.369 -0.1613  0.1892  0.1914
   10sY     BCG  615   3.856   5.094   8.461 -0.1791 -0.3096  0.2589
   10sY    BCE2  616   3.646   4.998   8.409 -0.2027  0.2721  0.0772
   10sY    BCE1  617   3.712   5.091   8.641  0.3198 -0.1168  0.0547
   10sY      GO  618   3.997   5.445   8.360 -0.1597 -0.0197 -0.0203
   11sE      GN  619   3.916   5.309   8.198 -0.5052  0.0067  0.3925
   11sE      GC  620   3.851   5.410   8.117  0.1575 -0.2156 -0.7311
   11sE     BCD  621   3.728   5.206   7.849 -0.3831 -0.0422 -0.1924
   11sE    BOE1  622   3.823   5.155   7.781  0.0122 -0.0166 -0.1180
   11sE    BOE2  623   3.617   5.201   7.830 -0.2836  0.0795  0.1408
   11sE      GO  624   3.734   5.570   8.282 -0.0158  0.1517  0.5006
   12sV      GN  625   3.907   5.669   8.136  0.3343  0.1416 -0.1089
   12sV      GC  626   3.890   5.807   8.169  0.3946 -0.0285 -0.0040
   12sV     BCB  627   4.030   5.877   8.200  0.0106  0.0676  0.2186
   12sV      GO  628   3.747   5.903   7.995 -0.2168 -0.4031  0.1298
   13sHe     GN  629   3.659   5.914   8.210 -0.0480  0.1687  0.0904
   13sHe     GC  630   3.534   5.958   8.174  0.3022 -0.0456  0.3880
   13sHe    BCG  631   3.340   5.832   8.261  0.3055 -0.1665 -0.2465
   13sHe    BNE  632   3.131   5.874   8.334  0.0858  0.3276  0.0725
   13sHe    BND  633   3.270   5.710   8.285  0.1927 -0.4266 -0.1019
   13sHe     GO  634   3.527   6.189   8.185  0.0707 -0.1874  0.2823
   14sHe     GN  635   3.491   6.117   7.981 -0.1114 -0.1966 -0.1844
   14sHe     GC  636   3.489   6.251   7.925  0.3740 -0.2297 -0.1385
   14sHe    BCG  637   3.704   6.333   7.840  0.4523 -0.1407  0.2617
   14sHe    BNE  638   3.856   6.413   7.967 -0.2064  0.2782  0.1057
   14sHe    BND  639   3.794   6.435   7.766  0.2480  0.2412 -0.2329
   14sHe     GO  640   3.321   6.282   7.750 -0.1273  0.3072 -0.1405
   15sQ      GN  641   3.283   6.364   7.952 -0.2104  0.0691 -0.1524
   15sQ      GC  642   3.141   6.399   7.944  0.4242 -0.2923  0.0826
   15sQ     BCD  643   3.047   6.079   7.911 -0.0521 -0.2208  0.0901
   15sQ     BOD  644   3.061   5.984   7.959 -0.5230  0.0879  0.0903
   15sQ     BND  645   2.913   6.107   7.843 -0.1974  0.0712 -0.5656
   15sQ      GO  646   3.087   6.590   8.084  0.3724  0.0451 -0.0276
   16sK      GN  647   2.979   6.586   7.887  0.0900  0.1014 -0.1764
   16sK      GC  648   2.923   6.713   7.894 -0.3539 -0.1682 -0.0343
   16sK     BCG  649   2.854   6.781   7.666 -0.2803  0.2359  0.0265
   16sK     BCE  650   2.694   6.849   7.497 -0.1815  0.2570  0.1995
   16sK      GO  651   2.859   6.789   8.118  0.2205 -0.0656  0.1155
   17sL      GN  652   2.977   6.941   7.985 -0.0284 -0.1481 -0.3995
   17sL      GC  653   2.994   7.032   8.091  0.1086 -0.0582 -0.2536
   17sL     BCG  654   3.156   7.015   8.296  0.1157 -0.1536 -0.2056
   17sL      GO  655   2.968   7.252   8.023  0.3334  0.2140  0.1144
   18sV      GN  656   2.839   7.192   8.199  0.0775  0.0627  0.0442
   18sV      GC  657   2.774   7.328   8.206  0.1914  0.4867  0.4173
   18sV     BCB  658   2.676   7.324   8.329  0.0680  0.3594 -0.1643
   18sV      GO  659   2.925   7.497   8.176  0.0529 -0.3172 -0.1437
   19sF      GN  660   2.767   7.482   7.988 -0.1627 -0.2488 -0.2459
   19sF      GC  661   2.838   7.602   7.919 -0.1518 -0.0112  0.3503
   19sF     BCG  662   3.051   7.593   7.780 -0.3505  0.4437  0.1235
   19sF    BCE1  663   3.169   7.453   7.632  0.1284 -0.0448 -0.1287
   19sF    BCE2  664   3.282   7.537   7.826  0.3424  0.1163  0.2212
   19sF      GO  665   2.677   7.741   7.800 -0.0274 -0.0219  0.2553
   20sF      GN  666   2.810   7.860   7.934  0.0902 -0.1135 -0.2637
   20sF      GC  667   2.731   7.990   7.931 -0.2204  0.0392 -0.2494
   20sF     BCG  668   2.538   8.019   8.088  0.0983 -0.2515 -0.0162
   20sF    BCE1  669   2.414   7.913   8.264 -0.1212  0.2781  0.2156
   20sF    BCE2  670   2.355   7.886   8.019 -0.2029 -0.2360 -0.0764
   20sF      GO  671   2.871   8.176   7.916 -0.2154  0.0299 -0.0919
   21sA      GN  672   2.740   8.139   7.757  0.2290 -0.0084  0.3369
   21sA      GC  673   2.782   8.256   7.673 -0.0544  0.2933 -0.1374
   21sA      GO  674   2.643   8.443   7.718 -0.1561  0.0241 -0.1639
   22sE      GN  675   2.861   8.465   7.745 -0.7437  0.2095  0.0708
   22sE      GC  676   2.864   8.606   7.771  0.1814  0.0335  0.2225
   22sE     BCD  677   2.791   8.618   8.123  0.4875  0.1385 -0.0461
   22sE    BOE1  678   2.875   8.535   8.181  0.0425 -0.1327  0.2592
   22sE    BOE2  679   2.753   8.712   8.194  0.4353 -0.0807 -0.5597
   22sE      GO  680   3.037   8.726   7.655 -0.0657  0.2869 -0.1346
   23sD      GN  681   3.127   8.567   7.800  0.3217 -0.3220 -0.0838
   23sD      GC  682   3.264   8.603   7.773 -0.0424  0.4292 -0.0215
   23sD     BCG  683   3.395   8.676   7.971 -0.2486  0.0816  0.1202
   23sD    BOE1  684   3.440   8.591   8.055  0.3623  0.0685  0.1570
   23sD    BOE2  685   3.424   8.796   8.013 -0.1906  0.2432  0.0943
   23sD      GO  686   3.348   8.448   7.619 -0.0058 -0.2161 -0.2811
   24sV      GN  687   3.387   8.671   7.584 -0.4645 -0.1971 -0.1691
   24sV      GC  688   3.461   8.645   7.462  0.1453 -0.2254 -0.0231
   24sV     BCB  689   3.403   8.753   7.369  0.3207  0.1407 -0.1157
   24sV      GO  690   3.688   8.625   7.509 -0.0097  0.2385 -0.1539
   25sG      GN  691   3.605   8.435   7.408  0.3405  0.2323  0.0364
   25sG      GC  692   3.729   8.348   7.418  0.0698  0.0064  0.2089
   25sG      GO  693   3.762   8.214   7.224  0.1754  0.3344  0.1911
   26sS      GN  694   3.930   8.346   7.290 -0.6078 -0.1586  0.3370
   26sS      GC  695   4.015   8.290   7.185  0.0145 -0.0478  0.0401
   26sS     BOG  696   4.024   8.478   7.035  0.1555 -0.0944  0.1569
   26sS     BPG  697   4.063   8.494   6.946 -0.0454 -0.0342  0.3154
   26sS      GO  698   4.156   8.099   7.250  0.1578 -0.0887 -0.1946
   27sN      GN  699   4.016   8.069   7.068 -0.1763 -0.1305 -0.0361
   27sN      GC  700   4.059   7.929   7.039 -0.1375  0.1580 -0.0069
   27sN     BCG  701   4.282   7.889   6.922 -0.0894  0.1383  0.2144
   27sN     BND  702   4.374   7.846   7.010 -0.1664  0.1599  0.4045
   27sN     BOD  703   4.285   7.964   6.815  0.2766 -0.0428 -0.0760
   27sN      GO  704   3.964   7.805   7.204  0.1678 -0.0179 -0.2902
   28sK      GN  705   3.889   7.789   7.006  0.2836  0.0738  0.1747
   28sK      GC  706   3.778   7.689   7.041 -0.0784 -0.5631  0.1694
   28sK     BCG  707   3.603   7.676   6.850 -0.1277  0.1656  0.2149
   28sK     BCE  708   3.436   7.599   6.677 -0.3433 -0.2235  0.2230
   28sK      GO  709   3.876   7.523   7.204  0.2979 -0.2105 -0.2240
   29sG      GN  710   3.720   7.648   7.304 -0.1838 -0.0682  0.2517
   29sG      GC  711   3.734   7.577   7.424  0.2101 -0.1206 -0.1040
   29sG      GO  712   3.521   7.549   7.536  0.1769 -0.3799 -0.1613
   30sA      GN  713   3.618   7.363   7.510 -0.3823  0.4216  0.2724
   30sA      GC  714   3.503   7.273   7.568 -0.1578  0.3447  0.0084
   30sA      GO  715   3.597   7.088   7.696  0.3322 -0.0059 -0.2386
   31sI      GN  716   3.404   7.194   7.786 -0.1062  0.0624  0.2151
   31sI      GC  717   3.401   7.134   7.916 -0.3908 -0.1184  0.1850
   31sI     BCG  718   3.443   7.299   8.083 -0.4114 -0.2665  0.3972
   31sI      GO  719   3.260   6.937   7.902 -0.0310 -0.0367 -0.2797
   32sI      GN  720   3.477   6.913   7.946 -0.0025  0.0718 -0.0444
   32sI      GC  721   3.477   6.767   7.968  0.4128 -0.3757 -0.0493
   32sI     BCG  722   3.495   6.686   7.742  0.0292  0.3230  0.1640
   32sI      GO  723   3.616   6.718   8.146 -0.0631  0.1540  0.0266
   33sG      GN  724   3.392   6.675   8.175  0.1533 -0.2273  0.3398
   33sG      GC  725   3.397   6.626   8.303 -0.1213 -0.0750  0.0871
   33sG      GO  726   3.402   6.390   8.306 -0.1966 -0.0227 -0.1639
   34sL      GN  727   3.579   6.506   8.387  0.1626 -0.0491 -0.4099
   34sL      GC  728   3.661   6.389   8.429  0.2063  0.0208 -0.1410
   34sL     BCG  729   3.894   6.392   8.354 -0.2835  0.1576  0.0443
   34sL      GO  730   3.620   6.344   8.655  0.1281  0.2098  0.2737
   35sM      GN  731   3.592   6.164   8.486 -0.0102 -0.1064 -0.0251
   35sM      GC  732   3.566   6.071   8.569 -0.3897  0.0836 -0.0947
   35sM     BSD  733   3.200   6.143   8.603  0.1169  0.1203 -0.1857
   35sM      GO  734   3.665   5.858   8.510 -0.2636  0.1505 -0.0311
   36sV      GN  735   3.796   5.992   8.633 -0.1066 -0.3727 -0.0380
   36sV      GC  736   3.908   5.913   8.636 -0.2155 -0.1154  0.0430
   36sV     BCB  737   4.022   6.019   8.639  0.4260 -0.3688  0.0983
   36sV      GO  738   3.898   5.759   8.828 -0.1084 -0.4251 -0.1136
   37sG      GN  739   3.871   5.660   8.635 -0.0039  0.3368  0.1363
   37sG      GC  740   3.839   5.527   8.686 -0.1795  0.0124 -0.0437
   37sG      GO  741   4.040   5.403   8.679 -0.0631  0.4413  0.0881
   38sG      GN  742   3.930   5.408   8.887  0.1500 -0.0030 -0.1798
   38sG      GC  743   4.015   5.312   8.973 -0.3875  0.1138  0.0453
   38sG      GO  744   4.068   5.121   8.839  0.1041 -0.0533 -0.0737
   39sV      GN  745   4.240   5.266   8.891 -0.1667  0.1628  0.4545
   39sV      GC  746   4.364   5.191   8.803 -0.1807  0.0812 -0.1256
   39sV     BCB  747   4.471   5.317   8.745  0.1010  0.1470  0.0530
   39sV      GO  748   4.454   5.039   8.975  0.0312 -0.1749 -0.3531
   40sV      GN  749   4.370   4.953   8.775 -0.1160 -0.1436  0.3413
   40sV      GC  750   4.385   4.814   8.804  0.0849 -0.4360 -0.2218
   40sV     BCB  751   4.257   4.740   8.772  0.1055 -0.0724  0.3153
   40sV      GO  752   4.582   4.721   8.731  0.1945 -0.0921 -0.0014
    1sD      GN  753   9.316   6.640   4.725 -0.5387 -0.1513  0.0914
    1sD      GC  754   9.354   6.765   4.633  0.1787 -0.0976  0.1986
    1sD     BCG  755   9.583   6.842   4.604  0.2148 -0.1822 -0.0983
    1sD    BOE1  756   9.598   6.927   4.692 -0.3203 -0.4692  0.2163
    1sD    BOE2  757   9.691   6.825   4.545 -0.1013  0.4478 -0.2833
    1sD      GO  758   9.196   6.753   4.450 -0.0807 -0.6703  0.2194
    2sA      GN  759   9.225   6.976   4.537  0.2586  0.0864  0.1627
    2sA      GC  760   9.118   7.037   4.452 -0.0437  0.1646  0.0500
    2sA      GO  761   9.170   7.255   4.361 -0.0131 -0.1915  0.2246
    3sE      GN  762   9.087   7.114   4.215  0.1287 -0.0560 -0.1019
    3sE      GC  763   9.091   7.199   4.103  0.1520  0.1175 -0.3132
    3sE     BCD  764   9.443   7.130   4.005 -0.1307 -0.0297 -0.4757
    3sE    BOE1  765   9.539   7.173   3.939 -0.1204  0.0944  0.1296
    3sE    BOE2  766   9.487   7.015   4.062 -0.3137  0.1575 -0.2603
    3sE      GO  767   8.877   7.182   3.979 -0.6115  0.0304 -0.2565
    4sF      GN  768   8.945   7.375   4.041 -0.1119  0.0959 -0.3337
    4sF      GC  769   8.827   7.439   4.005 -0.0775 -0.0201 -0.1466
    4sF     BCG  770   8.628   7.442   4.161 -0.2385  0.0971  0.4076
    4sF    BCE1  771   8.423   7.341   4.201  0.0019 -0.0784  0.0169
    4sF    BCE2  772   8.435   7.579   4.152  0.3241 -0.3590 -0.0592
    4sF      GO  773   8.856   7.658   3.912  0.1664  0.0406  0.0484
    5sR      GN  774   8.936   7.631   4.108 -0.1613 -0.0921  0.2142
    5sR      GC  775   8.956   7.767   4.101  0.2123 -0.0185 -0.0586
    5sR     BCG  776   8.828   7.834   4.305  0.1319 -0.0619 -0.0310
    5sR     BCZ  777   8.601   8.080   4.184 -0.1516  0.5244  0.3403
    5sR    BNN1  778   8.525   8.091   4.083 -0.1651  0.4457 -0.0030
    5sR    BNN2  779   8.563   8.035   4.290 -0.1968  0.1374 -0.2436
    5sR      GO  780   9.177   7.831   4.012 -0.1449  0.0006  0.3114
    6sHe     GN  781   9.011   7.947   3.938  0.1987  0.2474  0.0261
    6sHe     GC  782   9.109   8.027   3.848 -0.1893 -0.0630 -0.0096
    6sHe    BCG  783   9.277   8.198   3.959  0.3726  0.0845 -0.1278
    6sHe    BNE  784   9.486   8.194   3.908  0.0388  0.2404  0.3926
    6sHe    BND  785   9.323   8.330   3.952 -0.0629  0.3048  0.3481
    6sHe     GO  786   9.217   7.901   3.662  0.0279 -0.0737  0.1354
    7sD      GN  787   9.149   8.128   3.624 -0.2052  0.2428  0.1654
    7sD      GC  788   9.215   8.138   3.507  0.0947 -0.1434  0.6426
    7sD     BCG  789   9.058   8.251   3.334  0.2278  0.1173 -0.1489
    7sD    BOE1  790   9.003   8.143   3.285 -0.2841  0.1659  0.0965
    7sD    BOE2  791   8.998   8.359   3.317 -0.0083  0.2455 -0.1284
    7sD      GO  792   9.443   8.223   3.527  0.1970  0.0023  0.3378
    8sS      GN  793   9.384   8.034   3.420 -0.0942  0.0919  0.3692
    8sS      GC  794   9.519   8.006   3.375  0.1604  0.1929  0.5219
    8sS     BOG  795   9.538   7.801   3.235  0.1008  0.1371 -0.0160
    8sS     BPG  796   9.565   7.741   3.159  0.1628  0.0444 -0.2705
    8sS      GO  797   9.610   8.205   3.285 -0.1719 -0.4092 -0.2521
    9sG      GN  798   9.714   8.125   3.481 -0.4682 -0.1215  0.0435
    9sG      GC  799   9.814   8.229   3.475 -0.2005  0.1997 -0.3092
    9sG      GO  800   9.676   8.428   3.533 -0.1596 -0.2112 -0.2036
   10sY      GN  801   9.866   8.455   3.702  0.2666 -0.0490  0.0841
   10sY      GC  802   9.943   8.330   3.686 -0.1537 -0.0291 -0.2188
   10sY     BCG  803  10.169   8.344   3.601 -0.2491 -0.0197 -0.0564
   10sY    BCE2  804  10.194   8.277   3.377  0.3096 -0.0286  0.1522
   10sY    BCE1  805  10.345   8.200   3.547 -0.1389  0.2156  0.3551
   10sY      GO  806   9.867   8.160   3.860 -0.0545  0.2051 -0.3976
   11sE      GN  807   9.942   8.081   3.677  0.0494  0.3896  0.0095
   11sE      GC  808   9.921   7.943   3.712 -0.1890 -0.0312  0.2129
   11sE     BCD  809  10.098   7.763   3.450  0.0814  0.0872  0.0314
   11sE    BOE1  810  10.169   7.794   3.547 -0.1968 -0.2765  0.0354
   11sE    BOE2  811  10.079   7.706   3.349 -0.2990 -0.0206 -0.2325
   11sE      GO  812   9.961   7.902   3.948  0.0906  0.0834  0.0460
   12sV      GN  813   9.753   7.855   3.846 -0.0614 -0.0392 -0.0086
   12sV      GC  814   9.685   7.832   3.966 -0.0626  0.0467  0.1528
   12sV     BCB  815   9.541   7.780   3.915 -0.3538 -0.3450 -0.5164
   12sV      GO  816   9.830   7.717   4.118 -0.1633 -0.1485  0.0534
   13sHe     GN  817   9.763   7.902   4.198  0.0483 -0.2282 -0.4031
   13sHe     GC  818   9.816   7.876   4.336 -0.2755 -0.6376  0.0775
   13sHe    BCG  819  10.045   8.010   4.346  0.4286 -0.0237 -0.3452
   13sHe    BNE  820  10.095   8.161   4.513  0.0259 -0.0278  0.0797
   13sHe    BND  821  10.134   8.108   4.301  0.0620 -0.0868 -0.2890
   13sHe     GO  822   9.654   7.979   4.475  0.2088 -0.0412  0.2295
   14sHe     GN  823   9.704   7.770   4.499  0.5759  0.1057 -0.2979
   14sHe     GC  824   9.576   7.739   4.581 -0.2524  0.1930 -0.1171
   14sHe    BCG  825   9.380   7.690   4.447  0.0569 -0.5041  0.2311
   14sHe    BNE  826   9.375   7.566   4.257 -0.1111 -0.2280 -0.2998
   14sHe    BND  827   9.270   7.721   4.360  0.0571 -0.0647  0.0020
   14sHe     GO  828   9.623   7.570   4.771 -0.1665 -0.0520 -0.0222
   15sQ      GN  829   9.539   7.787   4.816  0.0276  0.2418 -0.0313
   15sQ      GC  830   9.529   7.778   4.968 -0.1560  0.1304  0.2266
   15sQ     BCD  831   9.864   7.797   5.023  0.3094  0.1334 -0.1263
   15sQ     BOD  832   9.842   7.750   5.145 -0.3450 -0.0429 -0.1474
   15sQ     BND  833   9.948   7.710   4.957 -0.0473  0.1932  0.0580
   15sQ      GO  834   9.333   7.907   5.038  0.0891  0.1051 -0.1413
   16sK      GN  835   9.418   7.739   5.158  0.3083  0.2806  0.0356
   16sK      GC  836   9.339   7.735   5.263 -0.0050 -0.1859 -0.2686
   16sK     BCG  837   9.427   7.543   5.384  0.0029 -0.0410  0.0324
   16sK     BCE  838   9.661   7.464   5.397 -0.1055  0.1338 -0.0260
   16sK      GO  839   9.310   7.959   5.346 -0.2562 -0.0167  0.1772
   17sL      GN  840   9.138   7.843   5.300  0.0334  0.2050 -0.4482
   17sL      GC  841   9.047   7.944   5.357  0.0958  0.2669  0.0008
   17sL     BCG  842   8.953   8.162   5.274  0.0202  0.2453 -0.5631
   17sL      GO  843   8.891   7.823   5.485 -0.1820  0.0676  0.2121
   18sV      GN  844   9.012   7.959   5.594 -0.0942  0.1555 -0.0502
   18sV      GC  845   8.944   7.935   5.727 -0.5762 -0.2825 -0.2215
   18sV     BCB  846   9.079   7.938   5.835  0.0523 -0.1089 -0.2501
   18sV      GO  847   8.760   8.098   5.783 -0.3201 -0.0156  0.2681
   19sF      GN  848   8.713   7.877   5.767 -0.5092  0.0205  0.0854
   19sF      GC  849   8.587   7.878   5.779  0.2580  0.0703 -0.0050
   19sF     BCG  850   8.486   7.653   5.818  0.4218 -0.5541  0.4310
   19sF    BCE1  851   8.438   7.412   5.841  0.3273  0.1556  0.0568
   19sF    BCE2  852   8.261   7.572   5.809  0.3124  0.2580  0.1157
   19sF      GO  853   8.511   8.041   5.937 -0.2045 -0.6719 -0.5912
   20sF      GN  854   8.424   8.049   5.738  0.2870 -0.0344  0.0622
   20sF      GC  855   8.350   8.168   5.771  0.0395 -0.0435  0.1967
   20sF     BCG  856   8.476   8.383   5.724  0.2701 -0.0740  0.0612
   20sF    BCE1  857   8.614   8.536   5.834  0.2067 -0.0998 -0.1496
   20sF    BCE2  858   8.689   8.436   5.640  0.0536 -0.2954 -0.0940
   20sF      GO  859   8.118   8.176   5.680 -0.1030  0.0431 -0.1211
   21sA      GN  860   8.143   8.278   5.883  0.1230 -0.2018 -0.0966
   21sA      GC  861   7.997   8.334   5.885 -0.4889 -0.2157 -0.3764
   21sA      GO  862   7.986   8.553   5.973  0.3182 -0.0530  0.5355
   22sE      GN  863   7.922   8.483   5.760 -0.2025 -0.1437 -0.1111
   22sE      GC  864   7.863   8.606   5.710 -0.1403  0.1658  0.1475
   22sE     BCD  865   8.175   8.806   5.642 -0.2174 -0.3965 -0.0267
   22sE    BOE1  866   8.277   8.783   5.731  0.1344 -0.3678 -0.0134
   22sE    BOE2  867   8.158   8.928   5.627 -0.2048 -0.0895  0.0080
   22sE      GO  868   7.668   8.567   5.565 -0.2238  0.4214 -0.2835
   23sD      GN  869   7.855   8.462   5.474  0.3896 -0.1905 -0.1006
   23sD      GC  870   7.781   8.398   5.365  0.0523  0.2344  0.3324
   23sD     BCG  871   7.850   8.439   5.136  0.0606 -0.7355  0.2969
   23sD    BOE1  872   7.767   8.482   5.038 -0.2369  0.1458 -0.2605
   23sD    BOE2  873   7.964   8.393   5.106  0.0315  0.0106  0.2588
   23sD      GO  874   7.758   8.158   5.412  0.2604 -0.3038 -0.3629
   24sV      GN  875   7.561   8.259   5.330 -0.2195 -0.3640  0.1549
   24sV      GC  876   7.475   8.151   5.346  0.0147 -0.1013  0.3922
   24sV     BCB  877   7.352   8.188   5.425  0.2937 -0.0727 -0.4001
   24sV      GO  878   7.461   8.028   5.128  0.0125 -0.1013  0.1599
   25sG      GN  879   7.582   7.911   5.282  0.0712  0.3008 -0.1093
   25sG      GC  880   7.615   7.809   5.174 -0.1612 -0.1742 -0.0143
   25sG      GO  881   7.466   7.624   5.189  0.3256 -0.0669 -0.1743
   26sS      GN  882   7.490   7.754   5.002 -0.4279 -0.3211 -0.5237
   26sS      GC  883   7.424   7.666   4.906 -0.1589  0.0669  0.1233
   26sS     BOG  884   7.192   7.685   4.916 -0.1541 -0.1538  0.0980
   26sS     BPG  885   7.104   7.641   4.929 -0.0100  0.1394  0.0013
   26sS      GO  886   7.548   7.686   4.698 -0.0262  0.4524  0.1603
   27sN      GN  887   7.485   7.497   4.780  0.0899  0.5149 -0.2150
   27sN      GC  888   7.552   7.401   4.694  0.5675  0.0367  0.2208
   27sN     BCG  889   7.405   7.398   4.489 -0.2298  0.3763  0.0341
   27sN     BND  890   7.268   7.337   4.490 -0.4460  0.1495 -0.0262
   27sN     BOD  891   7.425   7.463   4.381  0.0747 -0.1899  0.4295
   27sN      GO  892   7.773   7.422   4.722  0.2935  0.3001 -0.2519
   28sK      GN  893   7.686   7.209   4.784 -0.2795 -0.0563 -0.1398
   28sK      GC  894   7.813   7.154   4.830  0.2253 -0.1939 -0.1474
   28sK     BCG  895   7.702   6.946   4.876 -0.1312 -0.3074  0.3860
   28sK     BCE  896   7.598   6.784   5.026  0.0546 -0.0907 -0.0542
   28sK      GO  897   7.988   7.230   4.694 -0.1719  0.5893 -0.0063
   29sG      GN  898   7.969   7.299   4.909 -0.4886  0.1716  0.0651
   29sG      GC  899   8.091   7.387   4.889  0.0061 -0.3285 -0.2851
   29sG      GO  900   8.223   7.408   5.097 -0.2893  0.1031  0.0541
   30sA      GN  901   8.337   7.405   4.896  0.2676  0.0568 -0.2292
   30sA      GC  902   8.455   7.431   4.965 -0.1376 -0.4587  0.3291
   30sA      GO  903   8.606   7.554   4.808  0.2305  0.1063  0.2383
   31sI      GN  904   8.595   7.635   5.018  0.2305  0.1359 -0.1655
   31sI      GC  905   8.677   7.749   5.013  0.1307 -0.5633  0.3068
   31sI     BCG  906   8.568   7.985   5.061  0.2374  0.0262 -0.0042
   31sI      GO  907   8.896   7.695   5.072 -0.0949 -0.3192 -0.3230
   32sI      GN  908   8.837   7.751   4.849 -0.5099 -0.3619 -0.0809
   32sI      GC  909   8.980   7.760   4.809  0.1822 -0.1251  0.0459
   32sI     BCG  910   9.072   7.547   4.722  0.0213 -0.0125  0.0347
   32sI      GO  911   9.004   7.969   4.656  0.1030  0.5904 -0.3307
   33sG      GN  912   9.096   7.952   4.863  0.1553 -0.2493 -0.1715
   33sG      GC  913   9.147   8.084   4.860 -0.0593 -0.1745 -0.2564
   33sG      GO  914   9.375   8.070   4.778 -0.2842  0.1936  0.1326
   34sL      GN  915   9.228   8.176   4.665 -0.1804  0.0290 -0.1603
   34sL      GC  916   9.314   8.212   4.551 -0.4087 -0.0021  0.0702
   34sL     BCG  917   9.289   8.103   4.321  0.0363  0.2835  0.3148
   34sL      GO  918   9.401   8.438   4.585  0.1448 -0.0982  0.1720
   35sM      GN  919   9.553   8.288   4.515  0.2195  0.4310  0.1082
   35sM      GC  920   9.661   8.361   4.482  0.2538 -0.2211 -0.8420
   35sM     BSD  921   9.818   8.237   4.799 -0.0254  0.0191  0.1467
   35sM      GO  922   9.763   8.275   4.294  0.5988 -0.3133 -0.0619
   36sV      GN  923   9.732   8.495   4.299  0.6202  0.0571 -0.0306
   36sV      GC  924   9.771   8.515   4.156  0.0089  0.3172 -0.0733
   36sV     BCB  925   9.660   8.567   4.065  0.1398 -0.3275  0.1176
   36sV      GO  926  10.013   8.581   4.150  0.2331 -0.0154  0.1234
   37sG      GN  927   9.983   8.382   4.072 -0.0099  0.2655 -0.0740
   37sG      GC  928  10.125   8.361   4.020 -0.0321  0.0772  0.0294
   37sG      GO  929  10.209   8.549   3.901  0.2852  0.2346 -0.3030
   38sG      GN  930  10.330   8.469   4.081  0.0710  0.2105  0.1197
   38sG      GC  931  10.439   8.566   4.065  0.4681 -0.2677 -0.2258
   38sG      GO  932  10.647   8.465   4.086 -0.1749  0.5977  0.3888
   39sV      GN  933  10.603   8.561   3.894  0.3460 -0.1014 -0.0387
   39sV      GC  934  10.742   8.523   3.828  0.1713 -0.1018  0.1005
   39sV     BCB  935  10.684   8.479   3.683 -0.5737 -0.4896 -0.1301
   39sV      GO  936  10.869   8.720   3.835 -0.2812 -0.3327 -0.3035
   40sV      GN  937  10.991   8.562   3.957  0.0350  0.0061  0.0264
   40sV      GC  938  11.102   8.657   4.015 -0.1157  0.2749  0.1204
   40sV     BCB  939  11.118   8.684   4.164 -0.3590 -0.0220  0.3020
   40sV      GO  940  11.287   8.632   3.873  0.1356 -0.1099  0.0913
    1sD      GN  941   9.693   6.499   2.652  0.0355  0.3418 -0.2342
    1sD      GC  942   9.775   6.392   2.565  0.2288 -0.0627 -0.0583
    1sD     BCG  943   9.915   6.464   2.365  0.1092 -0.0280 -0.0938
    1sD    BOE1  944  10.003   6.403   2.296 -0.3139 -0.1646  0.1976
    1sD    BOE2  945   9.889   6.576   2.277  0.0885  0.6526  0.1177
    1sD      GO  946   9.833   6.188   2.706  0.1690 -0.6443 -0.2418
    2sA      GN  947   9.751   6.147   2.500  0.0743 -0.1392  0.0133
    2sA      GC  948   9.736   5.999   2.530  0.1760 -0.2639 -0.1947
    2sA      GO  949   9.920   5.920   2.669 -0.2035 -0.0268  0.3224
    3sE      GN  950   9.728   5.889   2.727  0.3611 -0.0769 -0.3770
    3sE      GC  951   9.761   5.821   2.849 -0.1247  0.0072 -0.1300
    3sE     BCD  952   9.511   6.092   2.937 -0.2441  0.2390 -0.1427
    3sE    BOE1  953   9.466   6.196   2.970  0.0417 -0.5066 -0.0020
    3sE    BOE2  954   9.455   5.976   2.984 -0.2813 -0.0334 -0.1072
    3sE      GO  955   9.730   5.599   2.813 -0.0799  0.0059  0.0118
    4sF      GN  956   9.938   5.668   2.875  0.1215 -0.1127  0.4885
    4sF      GC  957   9.992   5.541   2.866 -0.0673  0.3486 -0.1882
    4sF     BCG  958  10.224   5.518   2.956 -0.2452  0.3751 -0.3448
    4sF    BCE1  959  10.417   5.639   3.004  0.2569  0.2241  0.2249
    4sF    BCE2  960  10.438   5.441   2.864  0.4019  0.2387 -0.2783
    4sF      GO  961   9.845   5.358   2.955  0.1551 -0.2894  0.2074
    5sR      GN  962   9.886   5.522   3.099 -0.1291 -0.1145 -0.1399
    5sR      GC  963   9.810   5.463   3.219  0.4106  0.3865  0.1050
    5sR     BCG  964   9.875   5.572   3.417  0.1815  0.0577  0.0843
    5sR     BCZ  965   9.687   5.592   3.719 -0.1420  0.0324  0.4841
    5sR    BNN1  966   9.711   5.720   3.707 -0.1687  0.1774 -0.1486
    5sR    BNN2  967   9.766   5.516   3.788 -0.1811  0.1647 -0.0886
    5sR      GO  968   9.603   5.367   3.173 -0.2031 -0.1177  0.3227
    6sHe     GN  969   9.746   5.231   3.290 -0.4663 -0.0879  0.3151
    6sHe     GC  970   9.667   5.117   3.315  0.2493  0.1581  0.5201
    6sHe    BCG  971   9.470   5.162   3.480 -0.2778  0.6126  0.2730
    6sHe    BNE  972   9.449   5.235   3.690 -0.5007  0.0465 -0.3891
    6sHe    BND  973   9.345   5.127   3.529  0.2591  0.4077 -0.1165
    6sHe     GO  974   9.630   4.997   3.107 -0.2938 -0.0421 -0.0472
    7sD      GN  975   9.670   4.880   3.287 -0.0936  0.0389 -0.4985
    7sD      GC  976   9.653   4.735   3.231 -0.0821  0.0443 -0.0765
    7sD     BCG  977   9.854   4.600   3.269 -0.1436 -0.1407 -0.2614
    7sD    BOE1  978   9.946   4.638   3.190 -0.0649 -0.4451  0.1829
    7sD    BOE2  979   9.871   4.493   3.338  0.0819  0.1699  0.4492
    7sD      GO  980   9.430   4.652   3.257 -0.0112 -0.2384 -0.3447
    8sS      GN  981   9.493   4.684   3.042 -0.3231 -0.1205  0.0344
    8sS      GC  982   9.362   4.641   2.979  0.1059 -0.0587  0.1190
    8sS     BOG  983   9.245   4.830   2.895  0.3774  0.0638  0.5407
    8sS     BPG  984   9.151   4.820   2.833 -0.1262  0.0093 -0.1524
    8sS      GO  985   9.373   4.414   2.900 -0.1215  0.1612 -0.0164
    9sG      GN  986   9.205   4.497   3.028  0.1424 -0.2022 -0.2104
    9sG      GC  987   9.111   4.386   3.049 -0.3005  0.5184  0.3634
    9sG      GO  988   9.228   4.223   3.193 -0.1982  0.0543  0.2829
   10sY      GN  989   9.018   4.249   3.290  0.0306 -0.1436 -0.1794
   10sY      GC  990   8.941   4.321   3.202  0.0429 -0.1649 -0.3005
   10sY     BCG  991   8.717   4.206   3.219 -0.2963 -0.3228 -0.1767
   10sY    BCE2  992   8.509   4.146   3.332  0.0353 -0.1786  0.1007
   10sY    BCE1  993   8.514   4.295   3.114 -0.1586 -0.2810 -0.2853
   10sY      GO  994   8.940   4.555   3.253 -0.0998 -0.1837  0.2045
   11sE      GN  995   8.849   4.490   3.058 -0.0839  0.5643  0.3374
   11sE      GC  996   8.807   4.611   3.000 -0.0167 -0.0970 -0.0883
   11sE     BCD  997   8.775   4.545   2.641 -0.0662 -0.3522 -0.3300
   11sE    BOE1  998   8.879   4.489   2.656 -0.2369 -0.1994  0.0381
   11sE    BOE2  999   8.696   4.580   2.560  0.0761  0.1718  0.1130
   11sE      GO 1000   8.680   4.724   3.179 -0.5059 -0.0571 -0.3446
   12sV      GN 1001   8.850   4.836   3.084  0.1315  0.1139 -0.2149
   12sV      GC 1002   8.831   4.955   3.169  0.0726  0.0213 -0.1995
   12sV     BCB 1003   8.981   5.011   3.240 -0.1436  0.0823  0.1066
   12sV      GO 1004   8.684   5.089   3.040 -0.1375 -0.3814 -0.0507
   13sHe     GN 1005   8.594   5.038   3.244 -0.3529  0.1578 -0.0370
   13sHe     GC 1006   8.481   5.092   3.215  0.1365 -0.3062 -0.7954
   13sHe    BCG 1007   8.251   5.012   3.264 -0.0630  0.1422 -0.1457
   13sHe    BNE 1008   8.163   4.910   3.448  0.0982  0.1506  0.0901
   13sHe    BND 1009   8.155   4.936   3.236 -0.1814  0.2616  0.1712
   13sHe     GO 1010   8.454   5.305   3.311  0.3509  0.1238 -0.1825
   14sHe     GN 1011   8.446   5.277   3.098 -0.1526  0.2442  0.0630
   14sHe     GC 1012   8.416   5.425   3.079 -0.5401 -0.0449 -0.1211
   14sHe    BCG 1013   8.558   5.497   2.888 -0.1740  0.0522  0.1951
   14sHe    BNE 1014   8.783   5.454   2.819 -0.1067 -0.0814 -0.0669
   14sHe    BND 1015   8.581   5.489   2.750  0.3403 -0.1668 -0.1303
   14sHe     GO 1016   8.185   5.468   3.062  0.0072 -0.2381  0.0347
   15sQ      GN 1017   8.273   5.561   3.239 -0.1992 -0.1725 -0.0345
   15sQ      GC 1018   8.141   5.613   3.279 -0.0044  0.2874 -0.4434
   15sQ     BCD 1019   8.043   5.309   3.381 -0.1521 -0.0716 -0.2610
   15sQ     BOD 1020   7.976   5.275   3.295  0.1014  0.0581 -0.2077
   15sQ     BND 1021   8.073   5.307   3.504  0.1457  0.2090 -0.1794
   15sQ      GO 1022   8.150   5.836   3.381  0.0931 -0.1815 -0.1305
   16sK      GN 1023   7.992   5.791   3.226  0.0889 -0.0579 -0.0633
   16sK      GC 1024   7.932   5.924   3.233  0.0524 -0.1203  0.2160
   16sK     BCG 1025   7.917   6.052   3.030 -0.0374 -0.0485 -0.2411
   16sK     BCE 1026   7.671   6.061   2.983 -0.0062  0.0115 -0.0135
   16sK      GO 1027   7.740   5.924   3.380 -0.3151 -0.3827  0.0907
   17sL      GN 1028   7.927   6.046   3.444 -0.0462  0.6818 -0.1903
   17sL      GC 1029   7.877   6.102   3.580  0.0177  0.1898 -0.0240
   17sL     BCG 1030   7.889   5.936   3.761  0.0446 -0.0307  0.1113
   17sL      GO 1031   7.963   6.321   3.601  0.0813  0.1598 -0.0774
   18sV      GN 1032   7.732   6.299   3.641  0.0551  0.0582 -0.0444
   18sV      GC 1033   7.708   6.439   3.684 -0.1780 -0.3693  0.3314
   18sV     BCB 1034   7.592   6.517   3.608  0.1514 -0.2654  0.1954
   18sV      GO 1035   7.693   6.499   3.924 -0.0980  0.2435  0.1997
   19sF      GN 1036   7.892   6.535   3.833  0.0521  0.1288 -0.3981
   19sF      GC 1037   7.950   6.558   3.960 -0.0706 -0.0098  0.3004
   19sF     BCG 1038   8.082   6.346   4.039  0.2628 -0.2219 -0.0069
   19sF    BCE1 1039   8.082   6.120   4.107  0.0016  0.3209 -0.1296
   19sF    BCE2 1040   8.210   6.181   3.918 -0.0533 -0.1043  0.0782
   19sF      GO 1041   8.106   6.754   3.969  0.2580  0.3956 -0.1671
   20sF      GN 1042   7.958   6.720   4.124  0.1966 -0.5226 -0.4792
   20sF      GC 1043   8.005   6.850   4.211 -0.0219 -0.0467 -0.1718
   20sF     BCG 1044   7.892   7.074   4.174  0.2446  0.2318 -0.4479
   20sF    BCE1 1045   7.770   7.198   4.000 -0.4682  0.2575 -0.0951
   20sF    BCE2 1046   7.734   7.228   4.234  0.3132 -0.1074 -0.1944
   20sF      GO 1047   7.993   6.831   4.442  0.0977  0.2645 -0.1694
   21sA      GN 1048   8.204   6.866   4.368 -0.0093 -0.1118  0.1615
   21sA      GC 1049   8.280   6.868   4.510  0.3177 -0.4161 -0.0047
   21sA      GO 1050   8.309   7.099   4.598  0.1947  0.1971  0.3188
   22sE      GN 1051   8.253   6.928   4.748 -0.3066  0.1840  0.1876
   22sE      GC 1052   8.291   6.993   4.854  0.0998 -0.2906 -0.1010
   22sE     BCD 1053   8.209   6.705   5.078 -0.0234 -0.1782  0.2114
   22sE    BOE1 1054   8.289   6.611   5.045 -0.1938  0.0795 -0.1426
   22sE    BOE2 1055   8.098   6.698   5.133  0.0518  0.0609  0.0631
   22sE      GO 1056   8.497   7.128   4.817 -0.3450  0.3775 -0.1101
   23sD      GN 1057   8.524   6.887   4.779  0.0358 -0.1077 -0.0417
   23sD      GC 1058   8.654   6.891   4.715  0.3631  0.0293  0.1273
   23sD     BCG 1059   8.841   6.805   4.842  0.0047 -0.2112  0.0845
   23sD    BOE1 1060   8.946   6.863   4.899 -0.3792  0.0466 -0.2854
   23sD    BOE2 1061   8.892   6.721   4.755  0.0581  0.1909 -0.1146
   23sD      GO 1062   8.629   6.875   4.474 -0.0266  0.0274 -0.2201
   24sV      GN 1063   8.692   7.061   4.560 -0.4344 -0.1952 -0.2010
   24sV      GC 1064   8.699   7.148   4.432 -0.0392  0.2990  0.3727
   24sV     BCB 1065   8.751   7.282   4.487  0.0046  0.3592  0.0742
   24sV      GO 1066   8.797   7.025   4.255 -0.3770  0.0859 -0.0040
   25sG      GN 1067   8.569   7.026   4.238 -0.2272  0.0833 -0.4535
   25sG      GC 1068   8.567   6.949   4.126  0.1390  0.0540 -0.1817
   25sG      GO 1069   8.394   7.021   3.979  0.1927  0.1803 -0.1467
   26sS      GN 1070   8.605   6.994   3.917  0.1203 -0.1870  0.1252
   26sS      GC 1071   8.589   7.037   3.775  0.1654  0.0723  0.0384
   26sS     BOG 1072   8.559   7.274   3.779 -0.2322 -0.1979 -0.2974
   26sS     BPG 1073   8.554   7.360   3.722 -0.4005  0.0791 -0.3058
   26sS      GO 1074   8.737   6.900   3.666 -0.6493 -0.0466 -0.1386
   27sN      GN 1075   8.574   6.987   3.545  0.2756 -0.0583  0.2102
   27sN      GC 1076   8.594   6.916   3.414 -0.2916 -0.0135 -0.2063
   27sN     BCG 1077   8.796   7.007   3.304 -0.1025  0.4481 -0.1693
   27sN     BND 1078   8.766   7.102   3.235 -0.5483  0.1111 -0.1221
   27sN     BOD 1079   8.894   6.927   3.258 -0.1328  0.0969  0.0031
   27sN      GO 1080   8.552   6.694   3.463 -0.1918  0.3022  0.0228
   28sK      GN 1081   8.466   6.770   3.267  0.0951 -0.1480 -0.1028
   28sK      GC 1082   8.414   6.648   3.215 -0.0112 -0.2176  0.0080
   28sK     BCG 1083   8.259   6.709   3.033  0.3013  0.2225  0.3551
   28sK     BCE 1084   8.154   6.936   2.971  0.1604  0.2189 -0.2554
   28sK      GO 1085   8.576   6.482   3.248  0.2773 -0.1266  0.4399
   29sG      GN 1086   8.372   6.457   3.354 -0.0678  0.0613  0.2840
   29sG      GC 1087   8.412   6.345   3.414 -0.4077  0.4519 -0.3268
   29sG      GO 1088   8.257   6.177   3.437 -0.0066  0.0589 -0.2456
   30sA      GN 1089   8.429   6.134   3.303 -0.4237 -0.4600 -0.1190
   30sA      GC 1090   8.397   6.006   3.302  0.1079 -0.3665  0.3353
   30sA      GO 1091   8.584   5.868   3.301  0.0319  0.2308  0.0384
   31sI      GN 1092   8.432   5.867   3.465 -0.2437 -0.1715  0.5156
   31sI      GC 1093   8.501   5.775   3.551  0.0342  0.2949  0.3340
   31sI     BCG 1094   8.492   5.887   3.767 -0.2138  0.4857  0.0223
   31sI      GO 1095   8.414   5.540   3.509 -0.0365 -0.3652 -0.0012
   32sI      GN 1096   8.642   5.575   3.494 -0.2034 -0.2672 -0.0186
   32sI      GC 1097   8.689   5.445   3.467  0.1326  0.1500  0.1737
   32sI     BCG 1098   8.836   5.436   3.261  0.2511 -0.4511 -0.2881
   32sI      GO 1099   8.755   5.349   3.662  0.4407 -0.1295  0.0129
   33sG      GN 1100   8.618   5.209   3.553 -0.5559  0.2202  0.1742
   33sG      GC 1101   8.616   5.108   3.662 -0.2834  0.1986 -0.0901
   33sG      GO 1102   8.644   4.889   3.551 -0.0121  0.2022  0.3724
   34sL      GN 1103   8.807   4.925   3.710 -0.5167 -0.2075  0.1390
   34sL      GC 1104   8.881   4.793   3.684  0.4015 -0.1738  0.3119
   34sL     BCG 1105   9.108   4.801   3.592 -0.2373 -0.0766 -0.0645
   34sL      GO 1106   8.799   4.626   3.829 -0.3450 -0.2382 -0.1882
   35sM      GN 1107   8.730   4.619   3.619 -0.1643 -0.4102  0.3764
   35sM      GC 1108   8.672   4.501   3.636 -0.0495  0.3717  0.2563
   35sM     BSD 1109   8.385   4.573   3.429 -0.1258  0.1371 -0.2768
   35sM      GO 1110   8.829   4.319   3.572  0.1310  0.1210 -0.1231
   36sV      GN 1111   8.715   4.304   3.766 -0.1877 -0.4112 -0.1174
   36sV      GC 1112   8.777   4.190   3.805 -0.0809 -0.0109  0.2232
   36sV     BCB 1113   8.804   4.216   3.950  0.3678 -0.0217 -0.3464
   36sV      GO 1114   8.641   4.000   3.729  0.2832 -0.0725 -0.2986
   37sG      GN 1115   8.845   4.006   3.645 -0.0651 -0.4379  0.0720
   37sG      GC 1116   8.838   3.897   3.570 -0.1600  0.1687 -0.0024
   37sG      GO 1117   8.950   3.720   3.701 -0.0022  0.0841  0.1176
   38sG      GN 1118   8.779   3.650   3.573  0.0887 -0.0837 -0.1590
   38sG      GC 1119   8.795   3.505   3.600 -0.2200 -0.2251  0.0437
   38sG      GO 1120   8.758   3.375   3.390 -0.0573 -0.1620 -0.7179
   39sV      GN 1121   8.975   3.371   3.486 -0.3713 -0.0935 -0.3110
   39sV      GC 1122   9.044   3.289   3.385 -0.0176  0.0052  0.0059
   39sV     BCB 1123   9.115   3.400   3.282  0.3175  0.0363 -0.0699
   39sV      GO 1124   9.196   3.144   3.510  0.1655  0.2378 -0.2841
   40sV      GN 1125   9.022   3.045   3.404  0.1201  0.1632  0.5593
   40sV      GC 1126   9.039   2.909   3.437  0.0774 -0.0801 -0.3474
   40sV     BCB 1127   8.980   2.838   3.567 -0.0357  0.0954 -0.0721
   40sV      GO 1128   8.995   2.759   3.260 -0.1127 -0.0454  0.1281
    1sD      GN 1129   4.581   4.667   9.178  0.2792  0.2478  0.1473
    1sD      GC 1130   4.432   4.674   9.190 -0.2496 -0.1758  0.0607
    1sD     BCG 1131   4.301   4.485   9.245  0.0205 -0.1102 -0.1852
    1sD    BOE1 1132   4.216   4.518   9.333  0.2107 -0.3087  0.0055
    1sD    BOE2 1133   4.259   4.367   9.199  0.5001 -0.2530 -0.0043
    1sD      GO 1134   4.379   4.920   9.275 -0.0765  0.1110 -0.4033
    2sA      GN 1135   4.216   4.865   9.122 -0.2642  0.2540  0.1540
    2sA      GC 1136   4.151   4.987   9.101 -0.2648 -0.0196 -0.1262
    2sA      GO 1137   3.953   4.982   9.246 -0.3730 -0.1109 -0.1719
    3sE      GN 1138   4.085   5.167   9.211  0.2421  0.0141 -0.3195
    3sE      GC 1139   4.005   5.262   9.294  0.0927  0.4651 -0.3617
    3sE     BCD 1140   4.237   5.548   9.369 -0.0649  0.4973  0.0195
    3sE    BOE1 1141   4.275   5.656   9.313  0.0922  0.0758  0.2183
    3sE    BOE2 1142   4.156   5.549   9.459 -0.2975  0.3019 -0.2447
    3sE      GO 1143   3.761   5.232   9.248 -0.1773 -0.0614  0.1833
    4sF      GN 1144   3.837   5.276   9.462 -0.3511  0.2631  0.2822
    4sF      GC 1145   3.714   5.249   9.531  0.2573  0.0876 -0.0478
    4sF     BCG 1146   3.754   5.319   9.760 -0.0928 -0.0180 -0.0654
    4sF    BCE1 1147   3.645   5.505   9.858  0.0519 -0.0717 -0.0493
    4sF    BCE2 1148   3.703   5.314   9.988  0.0238 -0.0305  0.0321
    4sF      GO 1149   3.518   5.338   9.407  0.1069 -0.2902 -0.1002
    5sR      GN 1150   3.681   5.484   9.439  0.2634 -0.0070  0.0768
    5sR      GC 1151   3.605   5.589   9.386 -0.5067 -0.2776  0.4196
    5sR     BCG 1152   3.545   5.774   9.548  0.5861  0.1208 -0.2058
    5sR     BCZ 1153   3.297   5.974   9.703  0.1694 -0.0627 -0.3453
    5sR    BNN1 1154   3.200   5.909   9.762 -0.2459  0.4964 -0.2869
    5sR    BNN2 1155   3.336   6.089   9.760  0.2476 -0.0336 -0.0529
    5sR      GO 1156   3.662   5.615   9.149 -0.0086  0.0139 -0.0993
    6sHe     GN 1157   3.448   5.593   9.200  0.0387  0.2553 -0.4657
    6sHe     GC 1158   3.381   5.593   9.065 -0.0716  0.0131  0.0629
    6sHe    BCG 1159   3.380   5.797   8.925  0.1707 -0.0890  0.1258
    6sHe    BNE 1160   3.354   5.789   8.690  0.2063  0.3262 -0.0424
    6sHe    BND 1161   3.432   5.901   8.853  0.1368 -0.0238  0.1835
    6sHe     GO 1162   3.412   5.402   8.927 -0.0736 -0.1137 -0.2055
    7sD      GN 1163   3.208   5.435   9.012 -0.2160 -0.0895  0.0567
    7sD      GC 1164   3.139   5.319   8.943  0.0790 -0.1198  0.1981
    7sD     BCG 1165   3.023   5.176   9.109  0.4471  0.1962 -0.0310
    7sD    BOE1 1166   3.061   5.065   9.174  0.1662  0.1763 -0.0381
    7sD    BOE2 1167   2.898   5.117   9.074  0.1164  0.1229  0.2940
    7sD      GO 1168   3.033   5.434   8.760  0.1205  0.2305  0.0671
    8sS      GN 1169   3.168   5.271   8.691 -0.0600  0.1680  0.0889
    8sS      GC 1170   3.146   5.291   8.556  0.0871  0.0280  0.3857
    8sS     BOG 1171   3.359   5.357   8.469 -0.0121 -0.0266  0.1977
    8sS     BPG 1172   3.394   5.456   8.506  0.3484  0.2815 -0.0804
    8sS      GO 1173   2.965   5.156   8.465 -0.1818  0.2711 -0.1388
    9sG      GN 1174   2.971   5.394   8.410  0.3688 -0.0929 -0.4498
    9sG      GC 1175   2.834   5.398   8.325 -0.3029 -0.3901  0.1208
    9sG      GO 1176   2.634   5.371   8.435 -0.3326  0.1787  0.0398
   10sY      GN 1177   2.576   5.511   8.261 -0.0522  0.2833  0.4246
   10sY      GC 1178   2.700   5.532   8.193  0.1711 -0.0922 -0.1028
   10sY     BCG 1179   2.773   5.475   7.962  0.3444  0.0430  0.0200
   10sY    BCE2 1180   2.983   5.398   7.892 -0.1163 -0.4217  0.3103
   10sY    BCE1 1181   2.785   5.305   7.774  0.0544 -0.1562  0.3143
   10sY      GO 1182   2.790   5.739   8.267 -0.3024 -0.3756  0.2147
   11sE      GN 1183   2.583   5.768   8.175 -0.2344  0.1704  0.2009
   11sE      GC 1184   2.581   5.911   8.169  0.0158  0.0608 -0.2832
   11sE     BCD 1185   2.546   5.932   7.814  0.0854 -0.2768  0.1173
   11sE    BOE1 1186   2.435   5.881   7.771 -0.3271  0.0840 -0.3005
   11sE    BOE2 1187   2.654   5.886   7.764  0.1784  0.0787 -0.0129
   11sE      GO 1188   2.501   6.021   8.354 -0.0773  0.1473 -0.2172
   12sV      GN 1189   2.700   6.070   8.262  0.1645 -0.0378  0.2212
   12sV      GC 1190   2.747   6.180   8.363  0.1217 -0.1517  0.0648
   12sV     BCB 1191   2.872   6.236   8.294  0.2863  0.0904 -0.2874
   12sV      GO 1192   2.549   6.333   8.431 -0.1951  0.1097  0.2220
   13sHe     GN 1193   2.636   6.220   8.603 -0.1101 -0.0326 -0.1048
   13sHe     GC 1194   2.547   6.277   8.705 -0.0460 -0.1299  0.2256
   13sHe    BCG 1195   2.387   6.141   8.860 -0.1088  0.1999  0.1083
   13sHe    BNE 1196   2.203   6.193   8.972 -0.1177 -0.2166 -0.1537
   13sHe    BND 1197   2.379   6.073   8.982  0.1827 -0.2162  0.0044
   13sHe     GO 1198   2.638   6.451   8.827 -0.1442 -0.2765  0.3536
   14sHe     GN 1199   2.427   6.496   8.728 -0.4750 -0.0299 -0.2019
   14sHe     GC 1200   2.440   6.620   8.788  0.1190 -0.0083  0.0894
   14sHe    BCG 1201   2.524   6.800   8.643  0.3937  0.0221 -0.2934
   14sHe    BNE 1202   2.667   6.817   8.471 -0.1784  0.2477 -0.0546
   14sHe    BND 1203   2.499   6.909   8.566 -0.0107 -0.1069 -0.1183
   14sHe     GO 1204   2.227   6.681   8.880  0.1876 -0.1629  0.3102
   15sQ      GN 1205   2.398   6.689   9.030  0.3660  0.0864 -0.0418
   15sQ      GC 1206   2.318   6.749   9.132  0.1480  0.1007  0.2117
   15sQ     BCD 1207   2.136   6.480   9.242 -0.3033 -0.1913  0.3800
   15sQ     BOD 1208   2.175   6.477   9.358  0.0442 -0.0465 -0.0823
   15sQ     BND 1209   2.012   6.419   9.237 -0.0131 -0.1672  0.1435
   15sQ      GO 1210   2.447   6.910   9.252 -0.1267 -0.1663 -0.1198
   16sK      GN 1211   2.243   6.964   9.195  0.2481 -0.3350 -0.0084
   16sK      GC 1212   2.235   7.091   9.268 -0.0820  0.2486  0.0994
   16sK     BCG 1213   2.012   7.222   9.237 -0.1666 -0.1718  0.1557
   16sK     BCE 1214   1.858   7.402   9.274  0.1009 -0.2223 -0.0606
   16sK      GO 1215   2.340   7.064   9.483  0.3791 -0.0909  0.3182
   17sL      GN 1216   2.398   7.226   9.331  0.0343  0.0782 -0.1863
   17sL      GC 1217   2.497   7.276   9.421  0.1635 -0.2234 -0.2430
   17sL     BCG 1218   2.711   7.278   9.290 -0.0024 -0.2225  0.1837
   17sL      GO 1219   2.400   7.459   9.551  0.2824  0.0020  0.2051
   18sV      GN 1220   2.538   7.295   9.657 -0.2220  0.0165  0.3074
   18sV      GC 1221   2.542   7.343   9.784  0.1539 -0.2915  0.2890
   18sV     BCB 1222   2.504   7.215   9.850  0.1157  0.1334 -0.2271
   18sV      GO 1223   2.732   7.493   9.815  0.0137  0.0075 -0.0045
   19sF      GN 1224   2.542   7.599   9.782  0.1746 -0.1082 -0.1704
   19sF      GC 1225   2.603   7.736   9.781  0.2087 -0.0297  0.1496
   19sF     BCG 1226   2.697   7.788   9.545 -0.2059  0.0955  0.1610
   19sF    BCE1 1227   2.649   7.716   9.328 -0.1581 -0.1341  0.1786
   19sF    BCE2 1228   2.633   7.957   9.399  0.3990  0.1846  0.0092
   19sF      GO 1229   2.484   7.917   9.884 -0.0149 -0.1811  0.0880
   20sF      GN 1230   2.679   7.847   9.942 -0.3064  0.1269 -0.3150
   20sF      GC 1231   2.703   7.941  10.048 -0.1582  0.1246 -0.0477
   20sF     BCG 1232   2.760   7.848  10.279 -0.3633  0.3343 -0.0525
   20sF    BCE1 1233   2.894   7.953  10.446  0.0518  0.1709 -0.0298
   20sF    BCE2 1234   2.998   7.795  10.296  0.0217  0.1652  0.1189
   20sF      GO 1235   2.832   8.120   9.981 -0.2518 -0.0289  0.4746
   21sA      GN 1236   2.664   8.158  10.111 -0.1467 -0.2999  0.1054
   21sA      GC 1237   2.704   8.306  10.133 -0.1491  0.1106  0.2809
   21sA      GO 1238   2.670   8.372  10.356  0.3392  0.1043 -0.1472
   22sE      GN 1239   2.840   8.464  10.254  0.3773  0.2143  0.4485
   22sE      GC 1240   2.881   8.546  10.348 -0.0028 -0.0073  0.0053
   22sE     BCD 1241   2.998   8.352  10.630  0.1227  0.0789  0.1404
   22sE    BOE1 1242   2.937   8.285  10.747 -0.3293 -0.0101  0.1294
   22sE    BOE2 1243   3.107   8.412  10.661  0.2371  0.0046 -0.1488
   22sE      GO 1244   2.956   8.768  10.266 -0.0221  0.1131 -0.0785
   23sD      GN 1245   3.094   8.597  10.191 -0.2491 -0.1941 -0.2187
   23sD      GC 1246   3.182   8.677  10.117 -0.4419  0.1514  0.1597
   23sD     BCG 1247   3.355   8.538   9.992  0.3819 -0.3773  0.2505
   23sD    BOE1 1248   3.420   8.439   9.981 -0.0584 -0.1946  0.0307
   23sD    BOE2 1249   3.397   8.609   9.883  0.1691 -0.5519  0.3648
   23sD      GO 1250   3.062   8.828   9.991 -0.0799 -0.3383  0.1936
   24sV      GN 1251   3.251   8.913  10.093  0.0862  0.1944 -0.2912
   24sV      GC 1252   3.251   9.055  10.035  0.1138  0.0688  0.3349
   24sV     BCB 1253   3.242   9.177  10.152  0.2549  0.4370  0.6641
   24sV      GO 1254   3.385   9.057   9.833  0.0668 -0.1030 -0.2942
   25sG      GN 1255   3.155   9.047   9.799 -0.2207  0.0064 -0.2338
   25sG      GC 1256   3.171   9.027   9.651 -0.1484 -0.4896 -0.2905
   25sG      GO 1257   3.022   9.136   9.529  0.2705 -0.2445  0.1196
   26sS      GN 1258   3.230   9.109   9.444  0.0418 -0.0200  0.2296
   26sS      GC 1259   3.198   9.150   9.313  0.0484  0.0482 -0.2331
   26sS     BOG 1260   3.185   9.389   9.313 -0.5251  0.0919 -0.1478
   26sS     BPG 1261   3.150   9.473   9.286  0.0853  0.0240 -0.1486
   26sS      GO 1262   3.316   9.036   9.135 -0.1526  0.0254  0.0374
   27sN      GN 1263   3.094   8.969   9.164 -0.0221 -0.0306  0.1235
   27sN      GC 1264   3.085   8.871   9.070 -0.0875  0.0929  0.0184
   27sN     BCG 1265   3.042   8.964   8.853 -0.1575 -0.2362 -0.2522
   27sN     BND 1266   3.145   8.893   8.828 -0.4627 -0.1881 -0.2251
   27sN     BOD 1267   2.932   8.894   8.853 -0.1019 -0.7712 -0.1203
   27sN      GO 1268   3.223   8.668   9.130  0.1087 -0.1579  0.2634
   28sK      GN 1269   2.994   8.653   9.139 -0.2284 -0.0643 -0.1913
   28sK      GC 1270   2.984   8.521   9.183 -0.1721 -0.1028  0.1457
   28sK     BCG 1271   3.088   8.469   9.407  0.4670 -0.2021  0.0807
   28sK     BCE 1272   3.086   8.426   9.653 -0.1278 -0.1214  0.3907
   28sK      GO 1273   2.783   8.402   9.084 -0.2279 -0.1198 -0.2292
   29sG      GN 1274   2.980   8.313   9.011 -0.0973  0.0221  0.1728
   29sG      GC 1275   2.926   8.194   8.943  0.3232 -0.1646  0.2063
   29sG      GO 1276   3.084   8.006   8.959  0.2868  0.0579 -0.0901
   30sA      GN 1277   2.861   7.982   8.992  0.4299 -0.0907  0.1097
   30sA      GC 1278   2.856   7.842   8.988  0.0718  0.3174 -0.2888
   30sA      GO 1279   2.673   7.740   8.874 -0.1590  0.3776  0.1026
   31sI      GN 1280   2.893   7.669   8.844 -0.1232 -0.3908 -0.6231
   31sI      GC 1281   2.865   7.571   8.756 -0.1256  0.0115 -0.1469
   31sI     BCG 1282   2.879   7.707   8.542 -0.0095 -0.0350 -0.3462
   31sI      GO 1283   2.975   7.369   8.796 -0.3518  0.0921 -0.0305
   32sI      GN 1284   2.740   7.359   8.802  0.0419  0.1690  0.2408
   32sI      GC 1285   2.712   7.216   8.809  0.2037 -0.2172 -0.1804
   32sI     BCG 1286   2.445   7.199   8.805 -0.1935  0.3499 -0.0649
   32sI      GO 1287   2.865   7.085   8.697  0.2539 -0.0956  0.1642
   33sG      GN 1288   2.816   7.037   8.906  0.3137  0.0442 -0.0843
   33sG      GC 1289   2.897   6.940   8.921 -0.3773  0.0470 -0.0818
   33sG      GO 1290   2.780   6.722   8.893 -0.0899  0.2925 -0.0919
   34sL      GN 1291   2.998   6.722   8.844 -0.2317  0.3187 -0.0993
   34sL      GC 1292   3.014   6.563   8.776  0.2236 -0.5942 -0.0113
   34sL     BCG 1293   3.008   6.573   8.519  0.2363 -0.0307 -0.0631
   34sL      GO 1294   3.111   6.422   8.940 -0.0700 -0.3333 -0.1732
   35sM      GN 1295   2.912   6.367   8.846 -0.0709  0.2987  0.1764
   35sM      GC 1296   2.885   6.225   8.937  0.2483 -0.0052  0.2861
   35sM     BSD 1297   2.688   6.345   9.233  0.0870 -0.0474  0.0319
   35sM      GO 1298   2.796   6.051   8.784  0.0558 -0.2598 -0.2316
   36sV      GN 1299   2.934   6.004   8.942 -0.3508  0.2292 -0.2894
   36sV      GC 1300   2.942   5.854   8.923 -0.2098  0.3955  0.2827
   36sV     BCB 1301   2.984   5.814   9.079 -0.1324  0.2396  0.6124
   36sV      GO 1302   2.715   5.768   8.872  0.1230 -0.0951  0.4949
   37sG      GN 1303   2.867   5.733   8.706 -0.0079  0.1481  0.1907
   37sG      GC 1304   2.762   5.664   8.604  0.2666 -0.1385 -0.3048
   37sG      GO 1305   2.602   5.525   8.728  0.0705 -0.3169 -0.0640
   38sG      GN 1306   2.518   5.686   8.586  0.3665  0.0234 -0.2343
   38sG      GC 1307   2.387   5.658   8.605  0.2552 -0.0157  0.3186
   38sG      GO 1308   2.291   5.670   8.368  0.0921  0.2900 -0.2340
   39sV      GN 1309   2.247   5.495   8.518 -0.2570  0.0219  0.0646
   39sV      GC 1310   2.173   5.406   8.452 -0.1083  0.2747  0.4624
   39sV     BCB 1311   2.248   5.263   8.404  0.4544 -0.6028 -0.1584
   39sV      GO 1312   1.945   5.411   8.512  0.2726 -0.2057 -0.0842
   40sV      GN 1313   1.993   5.577   8.342  0.0611  0.0330 -0.1643
   40sV      GC 1314   1.856   5.615   8.339 -0.3742  0.1017 -0.0366
   40sV     BCB 1315   1.906   5.760   8.358  0.2122 -0.3321  0.3863
   40sV      GO 1316   1.737   5.498   8.162  0.0733 -0.1349  0.1196
    1sD      GN 1317   4.813   7.964   6.429 -0.0194  0.1527  0.1620
    1sD      GC 1318   4.947   8.035   6.413 -0.4701 -0.0802 -0.1169
    1sD     BCG 1319   4.974   8.217   6.244 -0.3537  0.4082 -0.0765
    1sD    BOE1 1320   4.901   8.227   6.145 -0.4861  0.1846 -0.0287
    1sD    BOE2 1321   5.088   8.280   6.270  0.3684  0.2564  0.2090
    1sD      GO 1322   5.026   8.070   6.643  0.4967  0.2873  0.4455
    2sA      GN 1323   5.185   7.923   6.540 -0.1014 -0.0386  0.1378
    2sA      GC 1324   5.274   7.915   6.676  0.1988 -0.0071  0.2379
    2sA      GO 1325   5.274   8.138   6.764 -0.2272  0.0868 -0.1368
    3sE      GN 1326   5.216   7.967   6.919 -0.2478 -0.4079 -0.1789
    3sE      GC 1327   5.175   8.057   7.028  0.2250 -0.1368 -0.2231
    3sE     BCD 1328   4.839   7.895   6.989  0.2042 -0.2695 -0.1396
    3sE    BOE1 1329   4.756   7.858   6.900  0.2569  0.0706  0.0248
    3sE    BOE2 1330   4.788   7.928   7.099 -0.1210 -0.2156  0.0092
    3sE      GO 1331   5.349   8.082   7.195 -0.4025  0.4770  0.1973
    4sF      GN 1332   5.271   8.272   7.099  0.4292  0.1697 -0.0381
    4sF      GC 1333   5.354   8.361   7.173 -0.2769  0.2164  0.0530
    4sF     BCG 1334   5.399   8.596   7.111 -0.2185 -0.1323  0.2016
    4sF    BCE1 1335   5.284   8.782   7.197  0.1322  0.1292 -0.6150
    4sF    BCE2 1336   5.340   8.779   6.956 -0.2422 -0.0318 -0.1049
    4sF      GO 1337   5.383   8.279   7.408  0.0108 -0.4644 -0.0722
    5sR      GN 1338   5.179   8.394   7.374 -0.0258 -0.3334 -0.2117
    5sR      GC 1339   5.150   8.404   7.518 -0.1044  0.1803 -0.0537
    5sR     BCG 1340   5.189   8.653   7.591  0.0628  0.7874 -0.2649
    5sR     BCZ 1341   5.171   8.736   7.933 -0.1280 -0.0677 -0.1362
    5sR    BNN1 1342   5.192   8.610   7.945 -0.0703 -0.1568 -0.4634
    5sR    BNN2 1343   5.134   8.819   8.026 -0.1479  0.1040 -0.4712
    5sR      GO 1344   4.992   8.212   7.561  0.0600  0.3406 -0.4476
    6sHe     GN 1345   5.167   8.240   7.699  0.2541  0.1903  0.1936
    6sHe     GC 1346   5.120   8.133   7.807 -0.0690 -0.6382  0.2426
    6sHe    BCG 1347   4.905   8.198   7.923 -0.0725 -0.1009  0.0150
    6sHe    BNE 1348   4.873   8.368   8.081 -0.1027  0.2253 -0.0415
    6sHe    BND 1349   4.783   8.235   7.962 -0.0646  0.3122  0.0953
    6sHe     GO 1350   5.124   7.923   7.709  0.1033 -0.1680  0.4910
    7sD      GN 1351   5.257   7.956   7.882 -0.3349  0.0055  0.0330
    7sD      GC 1352   5.319   7.816   7.881  0.4755  0.2163 -0.2314
    7sD     BCG 1353   5.546   7.785   7.868 -0.1294 -0.2150 -0.1411
    7sD    BOE1 1354   5.621   7.775   7.973 -0.0751  0.0767  0.1876
    7sD    BOE2 1355   5.610   7.797   7.758  0.2681  0.0260  0.1776
    7sD      GO 1356   5.198   7.682   8.056  0.1824 -0.3987  0.3410
    8sS      GN 1357   5.203   7.626   7.845  0.1094  0.0853  0.0782
    8sS      GC 1358   5.110   7.515   7.864 -0.1517  0.0637 -0.3413
    8sS     BOG 1359   4.912   7.549   7.723  0.2310  0.0217 -0.1396
    8sS     BPG 1360   4.819   7.514   7.743 -0.0262 -0.1667 -0.1207
    8sS      GO 1361   5.251   7.315   7.908  0.1462 -0.2503  0.4281
    9sG      GN 1362   5.102   7.386   8.050 -0.0691 -0.0475 -0.1355
    9sG      GC 1363   5.094   7.261   8.141  0.1082 -0.0009 -0.0811
    9sG      GO 1364   5.298   7.213   8.278  0.4000  0.0308 -0.4222
   10sY      GN 1365   5.099   7.187   8.434 -0.2872 -0.0710  0.1725
   10sY      GC 1366   4.978   7.212   8.352 -0.2693  0.4457 -0.3269
   10sY     BCG 1367   4.820   7.020   8.404 -0.0264 -0.3609 -0.0709
   10sY    BCE2 1368   4.649   6.964   8.562  0.2448  0.1636  0.3619
   10sY    BCE1 1369   4.656   6.841   8.350  0.0675 -0.0235 -0.0672
   10sY      GO 1370   4.888   7.426   8.347  0.6437 -0.2416  0.0074
   11sE      GN 1371   4.807   7.287   8.195  0.2580  0.1313 -0.3568
   11sE      GC 1372   4.714   7.381   8.146  0.0854  0.1414 -0.0379
   11sE     BCD 1373   4.563   7.201   7.853  0.1603 -0.4605 -0.0612
   11sE    BOE1 1374   4.584   7.084   7.848  0.1852  0.1298 -0.1235
   11sE    BOE2 1375   4.470   7.244   7.789  0.0917 -0.0307 -0.2417
   11sE      GO 1376   4.617   7.525   8.329 -0.0753 -0.0118 -0.1954
   12sV      GN 1377   4.735   7.605   8.151 -0.2545 -0.0375 -0.1102
   12sV      GC 1378   4.720   7.742   8.191 -0.0949 -0.1213  0.2777
   12sV     BCB 1379   4.809   7.807   8.094 -0.0395 -0.4032 -0.2197
   12sV      GO 1380   4.485   7.789   8.254  0.0091  0.1346  0.2340
   13sHe     GN 1381   4.642   7.799   8.407 -0.0702 -0.1683 -0.2740
   13sHe     GC 1382   4.565   7.840   8.517  0.4335  0.0745  0.1346
   13sHe    BCG 1383   4.626   7.723   8.720 -0.0036 -0.2916 -0.2577
   13sHe    BNE 1384   4.754   7.831   8.882  0.3162 -0.0216  0.0424
   13sHe    BND 1385   4.613   7.670   8.844 -0.0294  0.0240 -0.0088
   13sHe     GO 1386   4.556   8.066   8.536 -0.0730 -0.4193  0.2264
   14sHe     GN 1387   4.382   7.928   8.554  0.1432  0.0077 -0.1753
   14sHe     GC 1388   4.281   8.026   8.582  0.0411 -0.0432  0.5181
   14sHe    BCG 1389   4.164   8.124   8.387  0.1108  0.0174 -0.1418
   14sHe    BNE 1390   4.073   8.316   8.457  0.1019  0.0442 -0.1079
   14sHe    BND 1391   4.019   8.136   8.364 -0.3107 -0.3761  0.2332
   14sHe     GO 1392   4.115   7.941   8.717  0.0552 -0.0757 -0.0016
   15sQ      GN 1393   4.205   8.141   8.778 -0.1007  0.0603 -0.1461
   15sQ      GC 1394   4.125   8.156   8.897 -0.0989 -0.2469 -0.0755
   15sQ     BCD 1395   4.260   7.924   9.071  0.1120  0.0581 -0.1246
   15sQ     BOD 1396   4.233   7.932   9.197  0.2275  0.1680 -0.0508
   15sQ     BND 1397   4.335   7.842   9.020 -0.1077 -0.0192  0.1465
   15sQ      GO 1398   4.078   8.384   8.903 -0.2530 -0.1018 -0.1506
   16sK      GN 1399   3.906   8.264   8.940 -0.0570 -0.3892 -0.1042
   16sK      GC 1400   3.821   8.384   8.959 -0.0235 -0.1885 -0.1562
   16sK     BCG 1401   3.652   8.333   8.794 -0.2193  0.0525 -0.1099
   16sK     BCE 1402   3.447   8.318   8.907 -0.2477  0.2221 -0.0994
   16sK      GO 1403   3.801   8.437   9.201  0.0273 -0.2763  0.0621
   17sL      GN 1404   3.900   8.586   9.069  0.0923 -0.2779 -0.1449
   17sL      GC 1405   3.933   8.691   9.170 -0.1058 -0.0185 -0.1567
   17sL     BCG 1406   4.174   8.756   9.181  0.3720  0.0661  0.2291
   17sL      GO 1407   3.754   8.871   9.159 -0.2384  0.0177  0.0086
   18sV      GN 1408   3.783   8.772   9.365 -0.1506  0.1200  0.4506
   18sV      GC 1409   3.672   8.831   9.431 -0.1841 -0.3488  0.0717
   18sV     BCB 1410   3.599   8.718   9.514  0.2337 -0.1761  0.3303
   18sV      GO 1411   3.774   9.016   9.550  0.3554  0.4013  0.1480
   19sF      GN 1412   3.643   9.070   9.384  0.0673 -0.2730  0.1627
   19sF      GC 1413   3.648   9.215   9.420  0.1828 -0.0974  0.1095
   19sF     BCG 1414   3.703   9.400   9.252  0.0880  0.4344  0.1872
   19sF    BCE1 1415   3.628   9.581   9.139  0.3618  0.2801 -0.0919
   19sF    BCE2 1416   3.841   9.601   9.259 -0.3555  0.1240  0.1589
   19sF      GO 1417   3.471   9.285   9.563 -0.0562  0.1079 -0.0447
   20sF      GN 1418   3.684   9.304   9.634 -0.1027  0.2033 -0.1234
   20sF      GC 1419   3.662   9.357   9.783 -0.1371  0.0289  0.1705
   20sF     BCG 1420   3.797   9.220   9.941 -0.3381  0.0546  0.0459
   20sF    BCE1 1421   3.768   9.177  10.182  0.2152  0.2383  0.1627
   20sF    BCE2 1422   3.883   9.359  10.110  0.1613 -0.2946 -0.0153
   20sF      GO 1423   3.689   9.599   9.796 -0.2962 -0.2015 -0.3187
   21sA      GN 1424   3.507   9.511   9.888  0.3522  0.0386  0.3795
   21sA      GC 1425   3.441   9.635   9.910 -0.1353  0.2381 -0.2637
   21sA      GO 1426   3.305   9.612  10.113  0.2562 -0.3695 -0.2769
   22sE      GN 1427   3.443   9.782  10.106  0.5410 -0.2174 -0.1481
   22sE      GC 1428   3.395   9.829  10.250 -0.0190 -0.0788  0.2358
   22sE     BCD 1429   3.579  10.122  10.340  0.0287 -0.1976 -0.2586
   22sE    BOE1 1430   3.637  10.178  10.447  0.1991 -0.2837 -0.3157
   22sE    BOE2 1431   3.620  10.162  10.226 -0.0007 -0.0824 -0.2553
   22sE      GO 1432   3.155   9.791  10.293  0.1630 -0.0334  0.0120
   23sD      GN 1433   3.204   9.938  10.120  0.2483  0.0093  0.0814
   23sD      GC 1434   3.070   9.957  10.068  0.0449 -0.3629 -0.1974
   23sD     BCG 1435   2.923  10.132  10.176 -0.0413 -0.1643  0.2704
   23sD    BOE1 1436   2.800  10.093  10.187 -0.0782 -0.2262 -0.0298
   23sD    BOE2 1437   2.951  10.264  10.195  0.4249  0.1802  0.1002
   23sD      GO 1438   3.078   9.969   9.830 -0.2739 -0.0086  0.2067
   24sV      GN 1439   2.925   9.825   9.904 -0.3975 -0.0224 -0.1560
   24sV      GC 1440   2.875   9.789   9.784 -0.0882  0.0392  0.4001
   24sV     BCB 1441   2.749   9.702   9.819  0.1534  0.1472  0.2741
   24sV      GO 1442   2.857   9.979   9.629  0.0993 -0.2076 -0.2988
   25sG      GN 1443   3.013   9.826   9.547  0.3842 -0.3322 -0.2818
   25sG      GC 1444   3.026   9.896   9.432  0.0439  0.1948 -0.3733
   25sG      GO 1445   2.872   9.809   9.270 -0.2092  0.1905 -0.2086
   26sS      GN 1446   2.908  10.018   9.244 -0.1977 -0.4960 -0.2781
   26sS      GC 1447   2.848  10.044   9.108 -0.1675 -0.1172  0.1145
   26sS     BOG 1448   2.659  10.186   9.178 -0.2528 -0.0739  0.0519
   26sS     BPG 1449   2.597  10.263   9.140 -0.2249 -0.0870  0.1814
   26sS      GO 1450   3.031  10.052   8.945  0.3776 -0.1009  0.0492
   27sN      GN 1451   2.859   9.910   8.914 -0.0737  0.0763  0.0459
   27sN      GC 1452   2.902   9.861   8.775 -0.1262 -0.3369 -0.0167
   27sN     BCG 1453   2.860   9.963   8.563  0.0277  0.3409 -0.1463
   27sN     BND 1454   2.848   9.879   8.471 -0.1117 -0.0902  0.0088
   27sN     BOD 1455   2.790  10.072   8.585 -0.0522  0.1384 -0.3250
   27sN      GO 1456   3.108   9.756   8.790  0.2992  0.3667  0.0906
   28sK      GN 1457   2.940   9.620   8.745  0.1688 -0.1979  0.1047
   28sK      GC 1458   3.018   9.490   8.749  0.1779  0.0751 -0.0665
   28sK     BCG 1459   2.853   9.291   8.697  0.0250  0.3608 -0.3203
   28sK     BCE 1460   2.633   9.194   8.623 -0.0416 -0.2574 -0.0730
   28sK      GO 1461   3.234   9.525   8.656  0.1769  0.4865  0.2888
   29sG      GN 1462   3.215   9.394   8.852  0.0201 -0.2120 -0.0283
   29sG      GC 1463   3.357   9.373   8.855  0.1256 -0.2739 -0.0430
   29sG      GO 1464   3.413   9.159   8.928 -0.1586  0.1247  0.1914
   30sA      GN 1465   3.509   9.231   8.732 -0.2610  0.1543 -0.0962
   30sA      GC 1466   3.571   9.100   8.719 -0.2156  0.0651 -0.1613
   30sA      GO 1467   3.804   9.127   8.617 -0.0473  0.0581 -0.1790
   31sI      GN 1468   3.784   9.042   8.825 -0.0874 -0.1283 -0.4490
   31sI      GC 1469   3.915   9.021   8.854 -0.1690 -0.0058  0.1204
   31sI     BCG 1470   4.001   9.178   9.026  0.4723 -0.0936  0.0494
   31sI      GO 1471   3.977   8.789   8.817 -0.4886 -0.3034  0.1466
   32sI      GN 1472   4.086   8.933   8.686  1.0494  0.0260  0.0738
   32sI      GC 1473   4.155   8.828   8.604  0.3261 -0.0914 -0.2204
   32sI     BCG 1474   4.071   8.819   8.352  0.0074  0.3108 -0.2097
   32sI      GO 1475   4.374   8.797   8.690  0.3574  0.2197  0.3163
   33sG      GN 1476   4.243   8.599   8.693 -0.0522  0.0573 -0.1203
   33sG      GC 1477   4.358   8.530   8.737 -0.2450  0.1674  0.2172
   33sG      GO 1478   4.383   8.314   8.625  0.0088 -0.0480  0.0656
   34sL      GN 1479   4.508   8.475   8.567 -0.1700 -0.2751  0.1209
   34sL      GC 1480   4.580   8.400   8.478 -0.3073  0.2136  0.0465
   34sL     BCG 1481   4.453   8.363   8.262  0.0372 -0.0692 -0.4267
   34sL      GO 1482   4.821   8.467   8.492  0.3377 -0.0447  0.0030
   35sM      GN 1483   4.764   8.252   8.559 -0.2413 -0.0508  0.4134
   35sM      GC 1484   4.883   8.202   8.592 -0.0056  0.0884 -0.3447
   35sM     BSD 1485   4.842   8.312   8.937 -0.1717 -0.2154  0.0286
   35sM      GO 1486   4.880   7.981   8.546  0.0286  0.0230  0.2767
   36sV      GN 1487   5.065   8.093   8.472 -0.3565 -0.3023  0.0194
   36sV      GC 1488   5.127   8.000   8.403  0.0623  0.1705  0.3246
   36sV     BCB 1489   5.170   8.056   8.258 -0.3777 -0.0143 -0.3667
   36sV      GO 1490   5.288   7.866   8.519  0.0966  0.2657 -0.1437
   37sG      GN 1491   5.091   7.766   8.465  0.0601  0.0039  0.0498
   37sG      GC 1492   5.137   7.629   8.502  0.5116 -0.0679  0.0473
   37sG      GO 1493   5.170   7.617   8.732 -0.2490  0.1381 -0.0968
   38sG      GN 1494   5.003   7.503   8.621  0.1835  0.4610  0.0438
   38sG      GC 1495   4.932   7.446   8.757 -0.1655  0.0047  0.4164
   38sG      GO 1496   4.901   7.214   8.741 -0.0364  0.0701  0.0409
   39sV      GN 1497   5.085   7.289   8.856 -0.3341  0.3135 -0.2073
   39sV      GC 1498   5.150   7.151   8.858 -0.0965  0.4580 -0.2331
   39sV     BCB 1499   5.264   7.198   8.954 -0.2527  0.0539 -0.2077
   39sV      GO 1500   4.987   6.965   8.891 -0.0263 -0.4105  0.0084
   40sV      GN 1501   5.124   6.962   8.710 -0.1960  0.1786 -0.2100
   40sV      GC 1502   5.107   6.819   8.664  0.0220  0.1185 -0.4749
   40sV     BCB 1503   5.070   6.769   8.515 -0.3106  0.1157 -0.0909
   40sV      GO 1504   5.290   6.687   8.773  0.2938  0.2985  0.2475
  13.02317  13.02317  13.02317
