Protein
 1504
    1sD      GN    1   9.939   8.664   6.391  0.1047 -0.2679  0.1562
    1sD      GC    2  10.043   8.693   6.489 -0.1238  0.0119 -0.1853
    1sD     BCG    3  10.006   8.880   6.650 -0.1295  0.2234 -0.0877
    1sD    BOE1    4  10.012   8.818   6.775  0.0660 -0.1650  0.4415
    1sD    BOE2    5  10.074   8.971   6.627 -0.1242 -0.2157 -0.0044
    1sD      GO    6  10.162   8.487   6.529  0.0764 -0.1836  0.0390
    2sA      GN    7  10.311   8.663   6.508 -0.1650  0.2513  0.0152
    2sA      GC    8  10.429   8.584   6.536 -0.2821 -0.2908  0.1888
    2sA      GO    9  10.373   8.426   6.692 -0.0792 -0.1276  0.0536
    3sE      GN   10  10.518   8.375   6.524 -0.0826  0.0110 -0.1263
    3sE      GC   11  10.523   8.240   6.558 -0.1136 -0.0245  0.3255
    3sE     BCD   12  10.787   8.122   6.304  0.2990 -0.0436 -0.2367
    3sE    BOE1   13  10.726   8.054   6.223  0.0157  0.0901 -0.1337
    3sE    BOE2   14  10.900   8.127   6.320  0.2593 -0.1924 -0.1208
    3sE      GO   15  10.547   8.216   6.785 -0.1895  0.0352  0.0069
    4sF      GN   16  10.365   8.121   6.685 -0.2439 -0.0673 -0.3366
    4sF      GC   17  10.323   8.065   6.829  0.0912  0.3070  0.4828
    4sF     BCG   18  10.157   8.247   6.902  0.0902  0.0879  0.1724
    4sF    BCE1   19  10.053   8.456   6.881 -0.0049 -0.1446  0.1147
    4sF    BCE2   20  10.062   8.338   7.088 -0.2896  0.1375 -0.2944
    4sF      GO   21  10.242   7.837   6.776  0.0121 -0.0706  0.0153
    5sR      GN   22  10.371   7.874   6.957 -0.0455 -0.0807 -0.2954
    5sR      GC   23  10.348   7.727   7.007 -0.1545 -0.3288  0.1433
    5sR     BCG   24  10.529   7.544   7.022 -0.1111 -0.3748  0.1263
    5sR     BCZ   25  10.748   7.345   6.824  0.2274  0.0566  0.1625
    5sR    BNN1   26  10.643   7.261   6.818  0.1682  0.1975  0.2630
    5sR    BNN2   27  10.824   7.364   6.918  0.0423 -0.2859  0.4165
    5sR      GO   28  10.178   7.743   7.161 -0.0204 -0.0851 -0.0517
    6sHe     GN   29  10.116   7.640   6.955 -0.4065 -0.1270  0.3354
    6sHe     GC   30   9.981   7.604   6.996 -0.1881 -0.0815  0.1471
    6sHe    BCG   31   9.774   7.641   6.857 -0.2288  0.4467 -0.1987
    6sHe    BNE   32   9.674   7.432   6.821 -0.4693 -0.1364 -0.0944
    6sHe    BND   33   9.709   7.616   6.741  0.0671 -0.1601  0.2283
    6sHe     GO   34   9.965   7.377   7.069  0.2008 -0.2814 -0.0898
    7sD      GN   35   9.871   7.527   7.219 -0.0075 -0.0857  0.0649
    7sD      GC   36   9.814   7.434   7.319  0.5780 -0.2304  0.2024
    7sD     BCG   37   9.899   7.485   7.554 -0.3770  0.1175  0.6139
    7sD    BOE1   38   9.798   7.498   7.620 -0.2532  0.1081  0.2878
    7sD    BOE2   39  10.006   7.519   7.590  0.0808 -0.3282 -0.1865
    7sD      GO   40   9.575   7.433   7.236 -0.3446  0.1273  0.3824
    8sSp     GN   41   9.715   7.257   7.220  0.2780  0.1980 -0.2641
    8sSp     GC   42   9.614   7.163   7.151 -0.1570  0.0982  0.5140
    8sSp    BCB   43   9.688   7.023   7.109 -0.0150 -0.1421  0.1807
    8sSp     PX   44   9.553   6.851   6.964 -0.2508 -0.0933  0.1849
    8sSp     GO   45   9.394   7.192   7.218 -0.0068  0.1506 -0.2201
    9sG      GN   46   9.414   7.244   7.004 -0.0353  0.0260 -0.2936
    9sG      GC   47   9.272   7.299   6.997  0.3883  0.1353  0.2261
    9sG      GO   48   9.179   7.233   6.781  0.0351 -0.2895 -0.2594
   10sY      GN   49   9.079   7.146   6.963 -0.0437  0.1137  0.1837
   10sY      GC   50   9.000   7.067   6.883  0.3116  0.1756 -0.0400
   10sY     BCG   51   8.836   6.907   6.973  0.0732 -0.0058 -0.0253
   10sY    BCE2   52   8.677   6.767   6.869 -0.0449 -0.1873  0.2800
   10sY    BCE1   53   8.817   6.669   7.028 -0.0308  0.0580  0.1317
   10sY      GO   54   8.904   7.154   6.691  0.0917 -0.0697  0.0477
   11sE      GN   55   9.009   6.950   6.675  0.0230  0.2054  0.0058
   11sE      GC   56   8.973   6.946   6.535 -0.0929  0.4324  0.0713
   11sE     BCD   57   9.111   6.614   6.449  0.1585  0.3027  0.2538
   11sE    BOE1   58   9.158   6.655   6.340  0.1299 -0.3206  0.0429
   11sE    BOE2   59   9.117   6.486   6.474  0.1054 -0.0238  0.3451
   11sE      GO   60   8.745   7.003   6.511 -0.2094 -0.0002 -0.1799
   12sV      GN   61   8.884   7.062   6.359  0.4391 -0.0846 -0.1498
   12sV      GC   62   8.776   7.136   6.266  0.1127  0.0594  0.0191
   12sV     BCB   63   8.853   7.192   6.152 -0.0825 -0.4263 -0.1017
   12sV      GO   64   8.568   7.030   6.259 -0.1641 -0.0168  0.2208
   13sHe     GN   65   8.595   7.227   6.382  0.1358 -0.1265 -0.0848
   13sHe     GC   66   8.469   7.247   6.430  0.3406 -0.3852  0.2357
   13sHe    BCG   67   8.292   7.252   6.243 -0.4416  0.3284 -0.3013
   13sHe    BNE   68   8.244   7.392   6.097 -0.4978 -0.0871 -0.3471
   13sHe    BND   69   8.174   7.213   6.191 -0.0001 -0.0587  0.0766
   13sHe     GO   70   8.401   7.107   6.620 -0.2236 -0.0384  0.0975
   14sHe     GN   71   8.437   7.325   6.674  0.0170  0.1921  0.1560
   14sHe     GC   72   8.394   7.299   6.812 -0.0410  0.1539 -0.4796
   14sHe    BCG   73   8.527   7.219   7.020  0.1420 -0.1304 -0.8389
   14sHe    BNE   74   8.700   7.220   7.173 -0.0220  0.1016 -0.0409
   14sHe    BND   75   8.534   7.101   7.102  0.1058 -0.0835 -0.0394
   14sHe     GO   76   8.280   7.484   6.894  0.0423 -0.3746 -0.3792
   15sQ      GN   77   8.139   7.302   6.900  0.1227  0.1138  0.5427
   15sQ      GC   78   8.016   7.365   6.942  0.0339  0.0971 -0.0604
   15sQ     BCD   79   7.802   7.256   6.699  0.2566  0.1775  0.0394
   15sQ     BOD   80   7.807   7.371   6.674  0.0377 -0.1593  0.0568
   15sQ     BND   81   7.693   7.177   6.687 -0.0188  0.1912 -0.0267
   15sQ      GO   82   8.028   7.359   7.189  0.0543  0.3465  0.0548
   16sK      GN   83   7.995   7.554   7.091 -0.1354  0.0848 -0.3088
   16sK      GC   84   7.991   7.628   7.211  0.1463  0.1490  0.1298
   16sK     BCG   85   8.028   7.850   7.129  0.2808 -0.2805 -0.2119
   16sK     BCE   86   8.122   8.061   7.050 -0.0417 -0.2087 -0.1610
   16sK      GO   87   7.856   7.502   7.366 -0.0332 -0.3726 -0.0321
   17sL      GN   88   8.073   7.560   7.425 -0.2194  0.1097 -0.1280
   17sL      GC   89   8.084   7.495   7.552  0.4040  0.0607 -0.0086
   17sL     BCG   90   8.239   7.298   7.574 -0.0113  0.1260  0.2117
   17sL      GO   91   8.039   7.658   7.724  0.1763  0.2185 -0.0561
   18sV      GN   92   7.886   7.479   7.704  0.0589 -0.0908 -0.0371
   18sV      GC   93   7.800   7.532   7.835  0.1150  0.4090  0.5240
   18sV     BCB   94   7.641   7.513   7.832 -0.4431  0.1551  0.1827
   18sV      GO   95   7.908   7.623   8.029 -0.0079 -0.1159  0.0719
   19sF      GN   96   8.010   7.449   7.948 -0.0612 -0.2488  0.0743
   19sF      GC   97   8.119   7.451   8.043  0.1178  0.0272  0.2656
   19sF     BCG   98   8.209   7.249   8.169  0.0011 -0.0613 -0.0270
   19sF    BCE1   99   8.416   7.294   8.270 -0.0239 -0.0569  0.0238
   19sF    BCE2  100   8.383   7.101   8.117 -0.2420 -0.1600  0.4091
   19sF      GO  101   8.297   7.561   7.944  0.3009  0.1503  0.0152
   20sF      GN  102   8.221   7.626   8.155 -0.1563  0.0406  0.1438
   20sF      GC  103   8.315   7.720   8.176 -0.4957  0.0005  0.1811
   20sF     BCG  104   8.302   7.955   8.086 -0.2568 -0.1158 -0.1318
   20sF    BCE1  105   8.169   8.173   8.111 -0.3021 -0.0792  0.3112
   20sF    BCE2  106   8.350   8.141   7.955 -0.0592  0.0957 -0.1366
   20sF      GO  107   8.403   7.735   8.394  0.4841 -0.1402  0.1367
   21sA      GN  108   8.514   7.656   8.220  0.3073  0.2248  0.1140
   21sA      GC  109   8.645   7.634   8.296 -0.3032 -0.2146 -0.3192
   21sA      GO  110   8.844   7.689   8.154  0.0382  0.2659  0.1859
   22sE      GN  111   8.705   7.523   8.054  0.5478 -0.2322 -0.2611
   22sE      GC  112   8.783   7.497   7.945 -0.0544  0.1848  0.2357
   22sE     BCD  113   8.898   7.218   8.160  0.2290 -0.0192 -0.1538
   22sE    BOE1  114   8.812   7.143   8.133 -0.1488  0.0713  0.0749
   22sE    BOE2  115   9.012   7.213   8.150 -0.1573 -0.0717 -0.1608
   22sE      GO  116   8.659   7.480   7.734 -0.3958 -0.0237  0.0386
   23sD      GN  117   8.857   7.607   7.738  0.0229 -0.2033 -0.4088
   23sD      GC  118   8.868   7.650   7.602 -0.1159 -0.0621  0.1515
   23sD     BCG  119   8.854   7.884   7.512  0.2384 -0.1650  0.0400
   23sD    BOE1  120   8.775   7.826   7.444  0.3023  0.1334  0.2838
   23sD    BOE2  121   8.889   7.995   7.518  0.1560 -0.1641  0.2057
   23sD      GO  122   9.032   7.495   7.483 -0.2903  0.0994  0.2080
   24sV      GN  123   9.119   7.562   7.678 -0.0071 -0.2814  0.0679
   24sV      GC  124   9.255   7.515   7.655  0.0898  0.2170 -0.1616
   24sV     BCB  125   9.362   7.611   7.711 -0.2384  0.0812  0.0995
   24sV      GO  126   9.242   7.299   7.760 -0.2788 -0.1099  0.0662
   25sG      GN  127   9.280   7.287   7.533 -0.1948 -0.1204  0.2462
   25sG      GC  128   9.282   7.136   7.530  0.0284 -0.2298  0.0166
   25sG      GO  129   9.067   7.028   7.562  0.0491 -0.0485  0.1336
   26sS      GN  130   9.181   6.950   7.399  0.0555 -0.0651  0.1037
   26sS      GC  131   9.085   6.844   7.349 -0.5117 -0.2951 -0.1475
   26sS     BOG  132   9.177   6.802   7.147 -0.3856  0.1209  0.1437
   26sS     BPG  133   9.277   6.792   7.107 -0.0740  0.1845 -0.1407
   26sS      GO  134   8.993   6.723   7.534  0.0010 -0.7381 -0.0050
   27sN      GN  135   8.847   6.838   7.399 -0.1958 -0.1146 -0.0423
   27sN      GC  136   8.725   6.790   7.458 -0.2819 -0.1161  0.3750
   27sN     BCG  137   8.655   6.889   7.676 -0.2238  0.2298 -0.1691
   27sN     BND  138   8.686   6.995   7.769 -0.1942 -0.3489  0.0090
   27sN     BOD  139   8.529   6.861   7.679 -0.1362  0.1605 -0.0631
   27sN      GO  140   8.556   6.728   7.285  0.3563 -0.2623  0.0312
   28sK      GN  141   8.601   6.585   7.439  0.1048  0.2446  0.1985
   28sK      GC  142   8.515   6.475   7.395 -0.1547  0.0621 -0.4418
   28sK     BCG  143   8.637   6.300   7.525 -0.2060 -0.3169 -0.1690
   28sK     BCE  144   8.448   6.252   7.663  0.3274  0.4829 -0.1845
   28sK      GO  145   8.287   6.532   7.359  0.2645 -0.1777 -0.2651
   29sG      GN  146   8.391   6.429   7.205 -0.2079 -0.0911 -0.0444
   29sG      GC  147   8.292   6.434   7.098 -0.0592  0.2675  0.0037
   29sG      GO  148   8.274   6.661   7.025 -0.0201  0.1340  0.2907
   30sA      GN  149   8.329   6.523   6.853 -0.0372 -0.1124 -0.0309
   30sA      GC  150   8.320   6.619   6.745 -0.1969  0.0276 -0.2164
   30sA      GO  151   8.100   6.606   6.639 -0.0759  0.2601 -0.1856
   31sI      GN  152   8.154   6.801   6.733  0.0188 -0.0202  0.1306
   31sI      GC  153   8.035   6.850   6.714  0.0179  0.1965 -0.1257
   31sI     BCG  154   7.909   6.892   6.947 -0.0197 -0.2148  0.2388
   31sI      GO  155   8.036   6.961   6.513 -0.2670  0.2430 -0.0317
   32sI      GN  156   7.891   6.787   6.525  0.2375 -0.1705 -0.1897
   32sI      GC  157   7.836   6.818   6.383 -0.3455 -0.0984 -0.0765
   32sI     BCG  158   7.849   6.614   6.227 -0.0212 -0.1493 -0.0909
   32sI      GO  159   7.668   6.975   6.393 -0.1280  0.4060 -0.0526
   33sG      GN  160   7.834   7.016   6.244  0.0431 -0.4695 -0.3412
   33sG      GC  161   7.771   7.140   6.194  0.3332  0.1803  0.0764
   33sG      GO  162   7.658   7.071   5.992  0.0811  0.0792  0.1093
   34sL      GN  163   7.552   7.208   6.135 -0.1687 -0.2375 -0.1023
   34sL      GC  164   7.451   7.234   6.069 -0.1256  0.5002  0.2859
   34sL     BCG  165   7.295   7.343   6.216 -0.0658 -0.0507 -0.2811
   34sL      GO  166   7.502   7.268   5.817  0.2527  0.2390  0.1538
   35sM      GN  167   7.601   7.415   5.952  0.0942 -0.0461  0.3461
   35sM      GC  168   7.651   7.487   5.835 -0.0772  0.0186 -0.0664
   35sM     BSD  169   7.431   7.748   5.681 -0.3098  0.1178 -0.0596
   35sM      GO  170   7.859   7.561   5.855  0.1091 -0.0305  0.2227
   36sV      GN  171   7.782   7.479   5.660 -0.1215 -0.0471  0.3016
   36sV      GC  172   7.890   7.521   5.564 -0.0590  0.0568  0.2254
   36sV     BCB  173   7.936   7.387   5.501 -0.2902  0.2955  0.2161
   36sV      GO  174   7.812   7.732   5.460 -0.0100  0.1818  0.2653
   37sG      GN  175   7.951   7.763   5.632  0.3027 -0.1937 -0.2143
   37sG      GC  176   7.954   7.909   5.607 -0.3107  0.0607 -0.0314
   37sG      GO  177   8.157   7.928   5.476  0.0186 -0.0766  0.1197
   38sG      GN  178   7.983   8.042   5.414 -0.2555  0.0931  0.2425
   38sG      GC  179   8.035   8.091   5.283 -0.2587  0.1900 -0.1049
   38sG      GO  180   7.984   8.318   5.261  0.4772  0.0379  0.2692
   39sV      GN  181   8.199   8.255   5.217  0.0748  0.1037  0.1236
   39sV      GC  182   8.258   8.397   5.173  0.0568 -0.2599 -0.1231
   39sV     BCB  183   8.388   8.431   5.240 -0.0534 -0.4216 -0.2105
   39sV      GO  184   8.250   8.442   4.930  0.0329  0.3669 -0.0112
   40sV      GN  185   8.117   8.570   5.050 -0.0254 -0.0877 -0.0645
   40sV      GC  186   8.046   8.650   4.923  0.0743 -0.0290 -0.4387
   40sV     BCB  187   7.918   8.595   4.858  0.1391  0.0752 -0.0264
   40sV      GO  188   8.030   8.873   4.955  0.0337 -0.2261 -0.6192
    1sD      GN  189   8.321   7.536   4.673  0.1243  0.1080  0.1873
    1sD      GC  190   8.371   7.396   4.677 -0.2480  0.1095  0.5147
    1sD     BCG  191   8.610   7.377   4.640 -0.0152 -0.2940  0.0323
    1sD    BOE1  192   8.707   7.457   4.678  0.1885  0.2993  0.6028
    1sD    BOE2  193   8.643   7.312   4.542  0.0411  0.4210  0.2874
    1sD      GO  194   8.234   7.279   4.815  0.4681 -0.0122 -0.0111
    2sA      GN  195   8.283   7.151   4.629  0.1693  0.0297 -0.0238
    2sA      GC  196   8.186   7.038   4.670  0.0999 -0.0027  0.2339
    2sA      GO  197   8.261   6.821   4.600  0.4386  0.5343  0.1264
    3sE      GN  198   8.186   6.877   4.790  0.1653 -0.1950 -0.2354
    3sE      GC  199   8.211   6.756   4.856 -0.1830 -0.4270 -0.2652
    3sE     BCD  200   8.577   6.785   4.926  0.0074  0.1564 -0.0855
    3sE    BOE1  201   8.624   6.715   4.840 -0.2185 -0.2801 -0.3618
    3sE    BOE2  202   8.539   6.760   5.045 -0.1533 -0.2213  0.1827
    3sE      GO  203   8.018   6.713   5.021 -0.1069  0.0034 -0.2341
    4sF      GN  204   8.038   6.564   4.873  0.2079 -0.0691  0.1798
    4sF      GC  205   7.919   6.477   4.901 -0.1458 -0.3439 -0.0317
    4sF     BCG  206   7.907   6.309   4.740  0.1711  0.2995  0.0175
    4sF    BCE1  207   8.026   6.141   4.593 -0.3159  0.3979  0.1455
    4sF    BCE2  208   7.841   6.078   4.714  0.2193 -0.0340 -0.1062
    4sF      GO  209   7.855   6.429   5.127  0.1832  0.1134 -0.1192
    5sR      GN  210   7.709   6.510   4.992 -0.1276 -0.0634  0.0827
    5sR      GC  211   7.611   6.548   5.097  0.1227  0.0610  0.2311
    5sR     BCG  212   7.555   6.785   5.102 -0.0093 -0.9910 -0.0559
    5sR     BCZ  213   7.654   7.019   4.847  0.2026 -0.3185  0.0038
    5sR    BNN1  214   7.614   7.139   4.893  0.2749  0.0368 -0.3123
    5sR    BNN2  215   7.647   7.021   4.711 -0.1087  0.1173  0.2382
    5sR      GO  216   7.451   6.368   5.107  0.2539  0.0075 -0.1836
    6sHe     GN  217   7.569   6.414   5.300 -0.0796 -0.0638  0.0289
    6sHe     GC  218   7.486   6.332   5.393 -0.0285 -0.4733 -0.4072
    6sHe    BCG  219   7.619   6.187   5.560 -0.1134 -0.3392 -0.2054
    6sHe    BNE  220   7.831   6.129   5.589 -0.3549  0.1973  0.0636
    6sHe    BND  221   7.626   6.112   5.667 -0.1758 -0.3805  0.0340
    6sHe     GO  222   7.328   6.495   5.496  0.2616 -0.0860  0.0727
    7sD      GN  223   7.268   6.289   5.442  0.0557  0.0889  0.0294
    7sD      GC  224   7.150   6.289   5.515  0.3973  0.2951  0.0867
    7sD     BCG  225   6.941   6.222   5.389 -0.1842  0.2108 -0.0311
    7sD    BOE1  226   6.883   6.119   5.448 -0.3098 -0.0226 -0.4294
    7sD    BOE2  227   6.907   6.250   5.278 -0.0167 -0.3741 -0.0459
    7sD      GO  228   7.196   6.194   5.733  0.3532 -0.2593  0.1516
    8sSp     GN  229   7.087   6.398   5.728 -0.0601  0.2749  0.3590
    8sSp     GC  230   7.064   6.414   5.858  0.1832  0.2558  0.1736
    8sSp    BCB  231   6.978   6.544   5.840 -0.2365 -0.3703  0.0400
    8sSp     PX  232   6.717   6.569   5.894 -0.2040  0.3372 -0.1005
    8sSp     GO  233   6.992   6.208   5.953  0.1986 -0.0010  0.0770
    9sG      GN  234   7.211   6.269   6.000  0.0837  0.4392 -0.0662
    9sG      GC  235   7.241   6.153   6.075  0.1418  0.3297  0.1449
    9sG      GO  236   7.204   6.193   6.299 -0.4163  0.1494 -0.1911
   10sY      GN  237   7.072   6.026   6.220 -0.0190 -0.1057  0.0131
   10sY      GC  238   7.012   5.998   6.346  0.4344 -0.2068 -0.3670
   10sY     BCG  239   6.840   6.168   6.377  0.0216  0.0979 -0.1271
   10sY    BCE2  240   6.615   6.253   6.333 -0.1174  0.0085 -0.0775
   10sY    BCE1  241   6.817   6.399   6.308 -0.1487  0.3095 -0.1210
   10sY      GO  242   6.953   5.772   6.386 -0.3835  0.1400 -0.0801
   11sE      GN  243   7.088   5.878   6.533  0.4717 -0.2027 -0.1945
   11sE      GC  244   7.095   5.772   6.637  0.2946  0.0442 -0.0678
   11sE     BCD  245   7.462   5.760   6.620  0.0368 -0.0312 -0.1030
   11sE    BOE1  246   7.543   5.668   6.692 -0.1624 -0.0703  0.0963
   11sE    BOE2  247   7.497   5.875   6.654  0.3315 -0.4131  0.4001
   11sE      GO  248   6.931   5.811   6.811  0.1626  0.4304 -0.2115
   12sV      GN  249   6.941   5.592   6.716  0.0853 -0.2082  0.1222
   12sV      GC  250   6.849   5.519   6.805  0.1666 -0.1730 -0.1876
   12sV     BCB  251   6.831   5.385   6.756  0.3432  0.0398  0.1136
   12sV      GO  252   6.879   5.580   7.041 -0.5185  0.2460 -0.1836
   13sHe     GN  253   6.680   5.647   6.953 -0.0739 -0.2516 -0.1888
   13sHe     GC  254   6.636   5.729   7.071 -0.0896 -0.1745 -0.1765
   13sHe    BCG  255   6.589   5.613   7.291  0.0355 -0.2104  0.1963
   13sHe    BNE  256   6.418   5.530   7.402 -0.2427  0.2154  0.4480
   13sHe    BND  257   6.592   5.658   7.423 -0.0108 -0.1703 -0.2467
   13sHe     GO  258   6.769   5.915   7.104 -0.1499 -0.1356  0.3786
   14sHe     GN  259   6.557   5.913   7.079  0.1976 -0.1890  0.0473
   14sHe     GC  260   6.549   6.066   7.045 -0.0797 -0.0660 -0.2195
   14sHe    BCG  261   6.568   6.085   6.791  0.0701 -0.3941  0.2590
   14sHe    BNE  262   6.584   5.937   6.614 -0.0181  0.3343 -0.2288
   14sHe    BND  263   6.484   6.087   6.683  0.4220  0.3641 -0.0836
   14sHe     GO  264   6.347   6.149   7.165 -0.4456  0.0808  0.3608
   15sQ      GN  265   6.549   6.250   7.178  0.0635 -0.0264 -0.2656
   15sQ      GC  266   6.508   6.366   7.278  0.0705  0.0148  0.0485
   15sQ     BCD  267   6.499   6.181   7.565 -0.1521  0.2037 -0.3152
   15sQ     BOD  268   6.597   6.231   7.643  0.1027  0.2086  0.2444
   15sQ     BND  269   6.376   6.205   7.619  0.1861 -0.2727  0.2262
   15sQ      GO  270   6.618   6.572   7.213 -0.1241 -0.0901 -0.0789
   16sK      GN  271   6.420   6.586   7.286  0.3016  0.1853 -0.1696
   16sK      GC  272   6.409   6.725   7.277  0.3357  0.2418  0.2555
   16sK     BCG  273   6.166   6.785   7.329 -0.3148  0.2638  0.0539
   16sK     BCE  274   5.960   6.805   7.478 -0.3461  0.0916 -0.0950
   16sK      GO  275   6.603   6.822   7.353  0.0876  0.0017 -0.0258
   17sL      GN  276   6.551   6.889   7.136  0.2871  0.1552 -0.2594
   17sL      GC  277   6.671   6.977   7.106 -0.0811 -0.3389  0.1118
   17sL     BCG  278   6.665   7.109   6.880  0.1329 -0.1307  0.3362
   17sL      GO  279   6.715   7.092   7.303 -0.0379 -0.3123  0.0799
   18sV      GN  280   6.855   6.937   7.262 -0.0223 -0.0970  0.0992
   18sV      GC  281   6.930   6.971   7.380  0.5231  0.1360  0.1548
   18sV     BCB  282   7.020   6.855   7.438 -0.0219  0.0767 -0.0311
   18sV      GO  283   6.967   7.211   7.424 -0.2571 -0.1732 -0.3104
   19sF      GN  284   7.060   7.127   7.230  0.2928 -0.1813 -0.0549
   19sF      GC  285   7.111   7.262   7.198  0.0152  0.1377 -0.2593
   19sF     BCG  286   7.347   7.232   7.090 -0.1290  0.2507 -0.4354
   19sF    BCE1  287   7.562   7.126   7.133  0.2277  0.2195 -0.0979
   19sF    BCE2  288   7.415   7.032   6.981  0.2171 -0.0040  0.1421
   19sF      GO  289   6.969   7.376   7.038  0.0415  0.1270  0.1922
   20sF      GN  290   6.975   7.456   7.229  0.2248  0.3098 -0.0138
   20sF      GC  291   6.876   7.547   7.202  0.2985 -0.5578  0.0999
   20sF     BCG  292   6.623   7.497   7.183  0.4007  0.2270  0.5804
   20sF    BCE1  293   6.399   7.445   7.032 -0.0326 -0.0173 -0.6325
   20sF    BCE2  294   6.443   7.653   7.119  0.0408  0.2903  0.0778
   20sF      GO  295   6.901   7.751   7.314 -0.0005 -0.3058 -0.2744
   21sA      GN  296   6.860   7.739   7.097  0.0240 -0.1149 -0.1353
   21sA      GC  297   6.839   7.882   7.076 -0.2759  0.1404  0.1114
   21sA      GO  298   6.671   7.932   6.906 -0.1189  0.1009 -0.0824
   22sE      GN  299   6.804   7.777   6.840  0.0509 -0.0206  0.2230
   22sE      GC  300   6.739   7.762   6.706 -0.1591 -0.0758  0.1152
   22sE     BCD  301   6.838   8.076   6.533  0.2221  0.0125  0.2385
   22sE    BOE1  302   6.759   8.144   6.451  0.0521  0.0590  0.0166
   22sE    BOE2  303   6.959   8.069   6.490  0.1591  0.1959 -0.1837
   22sE      GO  304   6.728   7.538   6.626  0.0846  0.1572 -0.4231
   23sD      GN  305   6.557   7.666   6.653  0.1744 -0.0713  0.0143
   23sD      GC  306   6.453   7.564   6.604 -0.0654 -0.3375  0.2227
   23sD     BCG  307   6.221   7.645   6.592 -0.0022 -0.3223  0.2148
   23sD    BOE1  308   6.146   7.665   6.484 -0.4394 -0.2361 -0.2241
   23sD    BOE2  309   6.164   7.683   6.691 -0.2490 -0.0456 -0.0020
   23sD      GO  310   6.527   7.438   6.415  0.0802  0.2704 -0.0450
   24sV      GN  311   6.538   7.645   6.383 -0.5377 -0.1992  0.1088
   24sV      GC  312   6.600   7.635   6.241  0.3974  0.1804 -0.3279
   24sV     BCB  313   6.512   7.732   6.144  0.1510 -0.3508 -0.0686
   24sV      GO  314   6.837   7.637   6.233  0.1728 -0.0555 -0.1775
   25sG      GN  315   6.738   7.429   6.172 -0.0080 -0.2521 -0.3443
   25sG      GC  316   6.858   7.338   6.162 -0.5812 -0.2385 -0.2457
   25sG      GO  317   6.861   7.139   6.021  0.2484  0.0609  0.0117
   26sS      GN  318   6.716   7.128   6.200 -0.1578  0.2009 -0.1128
   26sS      GC  319   6.675   7.003   6.181  0.4641  0.2773  0.3529
   26sS     BOG  320   6.811   6.803   6.219 -0.2207  0.4002 -0.2508
   26sS     BPG  321   6.835   6.739   6.131  0.3074  0.0969 -0.2535
   26sS      GO  322   6.437   6.996   6.246  0.2449  0.2074 -0.0250
   27sN      GN  323   6.495   6.944   6.039  0.1386 -0.2584 -0.0825
   27sN      GC  324   6.354   6.904   5.988  0.1673 -0.1324 -0.0600
   27sN     BCG  325   6.348   6.886   5.749  0.0051  0.2313 -0.0574
   27sN     BND  326   6.394   6.778   5.657  0.1382 -0.0229 -0.1597
   27sN     BOD  327   6.276   6.970   5.692 -0.4899 -0.1065  0.0342
   27sN      GO  328   6.205   6.777   6.140 -0.3413 -0.1128  0.4224
   28sK      GN  329   6.400   6.689   6.110 -0.1495  0.2360  0.3567
   28sK      GC  330   6.374   6.584   6.177 -0.0351  0.0409 -0.0393
   28sK     BCG  331   6.407   6.392   6.040  0.3805 -0.1189  0.2338
   28sK     BCE  332   6.462   6.166   5.968  0.3497  0.0949 -0.1199
   28sK      GO  333   6.449   6.621   6.414  0.5525 -0.1722  0.3308
   29sG      GN  334   6.239   6.535   6.396  0.3380  0.4094 -0.1148
   29sG      GC  335   6.221   6.526   6.533 -0.3201  0.1649 -0.0214
   29sG      GO  336   6.424   6.450   6.631 -0.0607 -0.6404  0.2724
   30sA      GN  337   6.316   6.638   6.729  0.0137 -0.1566  0.0992
   30sA      GC  338   6.403   6.659   6.835  0.0541  0.0616 -0.0214
   30sA      GO  339   6.461   6.441   6.909 -0.5219  0.2507  0.4286
   31sI      GN  340   6.600   6.613   6.894 -0.0198  0.1572 -0.2961
   31sI      GC  341   6.737   6.536   6.923  0.2265 -0.0175 -0.2912
   31sI     BCG  342   6.804   6.424   6.710  0.1447  0.0344 -0.1594
   31sI      GO  343   6.890   6.671   7.069 -0.0002  0.3812 -0.1126
   32sI      GN  344   6.879   6.450   7.119 -0.0162 -0.1336  0.1834
   32sI      GC  345   7.002   6.452   7.211 -0.0811 -0.1269  0.0487
   32sI     BCG  346   6.906   6.408   7.426 -0.1235  0.1291 -0.0456
   32sI      GO  347   7.176   6.378   7.083 -0.0820  0.0101  0.5853
   33sG      GN  348   7.181   6.579   7.165  0.0282  0.0352  0.1091
   33sG      GC  349   7.307   6.632   7.101  0.1578  0.0587 -0.1280
   33sG      GO  350   7.475   6.448   7.080 -0.1482 -0.2437  0.1710
   34sL      GN  351   7.434   6.577   6.907  0.0475  0.0723  0.0429
   34sL      GC  352   7.531   6.518   6.805  0.0054 -0.0748 -0.1861
   34sL     BCG  353   7.432   6.321   6.683 -0.1956 -0.0637  0.0519
   34sL      GO  354   7.627   6.698   6.664 -0.1953  0.2012 -0.0412
   35sM      GN  355   7.407   6.671   6.613 -0.2097 -0.4140  0.1346
   35sM      GC  356   7.410   6.782   6.511 -0.4195 -0.0640  0.1557
   35sM     BSD  357   7.244   6.646   6.213  0.5198  0.2393  0.0135
   35sM      GO  358   7.332   6.997   6.582 -0.2339 -0.2858  0.0714
   36sV      GN  359   7.179   6.826   6.549  0.1720  0.0393 -0.0792
   36sV      GC  360   7.054   6.903   6.592 -0.0383  0.1276  0.2149
   36sV     BCB  361   6.940   6.806   6.603  0.0963 -0.1937  0.0936
   36sV      GO  362   7.106   7.037   6.797  0.0448  0.0030 -0.0412
   37sG      GN  363   7.037   7.163   6.622 -0.0525 -0.1259  0.0540
   37sG      GC  364   7.057   7.284   6.688  0.0338 -0.0796 -0.2544
   37sG      GO  365   7.292   7.326   6.711 -0.1426 -0.0423  0.3408
   38sG      GN  366   7.141   7.510   6.711 -0.2456  0.2936 -0.0860
   38sG      GC  367   7.252   7.612   6.720 -0.1499 -0.2172  0.4585
   38sG      GO  368   7.268   7.681   6.939 -0.0041 -0.0875  0.0898
   39sV      GN  369   7.446   7.658   6.826 -0.0479  0.0131 -0.1465
   39sV      GC  370   7.546   7.683   6.946 -0.1034  0.1618  0.0039
   39sV     BCB  371   7.583   7.544   7.034  0.1267  0.1282 -0.4720
   39sV      GO  372   7.745   7.809   6.863 -0.0831  0.3087  0.1490
   40sV      GN  373   7.563   7.918   6.931  0.0005  0.4448  0.0777
   40sV      GC  374   7.624   8.037   6.909 -0.0717 -0.0585 -0.3354
   40sV     BCB  375   7.538   8.143   6.853  0.5038  0.0407  0.3534
   40sV      GO  376   7.737   8.134   7.109 -0.3051 -0.0128  0.1794
    1sD      GN  377   9.667   9.760   6.741  0.3325 -0.0544 -0.1629
    1sD      GC  378   9.675   9.652   6.633 -0.2162 -0.1861  0.0401
    1sD     BCG  379   9.601   9.416   6.640 -0.1879 -0.0720 -0.0731
    1sD    BOE1  380   9.681   9.311   6.607  0.1281  0.0092 -0.1211
    1sD    BOE2  381   9.504   9.381   6.693  0.1742 -0.1192 -0.1777
    1sD      GO  382   9.597   9.767   6.440  0.1192  0.0601 -0.0497
    2sA      GN  383   9.760   9.630   6.371 -0.1264 -0.0989 -0.5014
    2sA      GC  384   9.766   9.663   6.234  0.0404 -0.1611  0.2518
    2sA      GO  385   9.638   9.485   6.136  0.1797 -0.0676 -0.0441
    3sE      GN  386   9.583   9.691   6.075 -0.1350  0.2261  0.0084
    3sE      GC  387   9.469   9.648   5.990  0.1089  0.3663 -0.0780
    3sE     BCD  388   9.180   9.804   6.164 -0.0519 -0.2656 -0.3891
    3sE    BOE1  389   9.208   9.811   6.307  0.3030  0.2819  0.1097
    3sE    BOE2  390   9.170   9.700   6.114 -0.0257  0.2736  0.3115
    3sE      GO  391   9.522   9.606   5.766 -0.1996 -0.2955  0.2435
    4sF      GN  392   9.431   9.439   5.873 -0.2813 -0.0179 -0.2400
    4sF      GC  393   9.429   9.360   5.754 -0.3192  0.3193 -0.0064
    4sF     BCG  394   9.381   9.115   5.735  0.1682  0.0642  0.2139
    4sF    BCE1  395   9.294   8.937   5.864  0.0353  0.1570  0.0120
    4sF    BCE2  396   9.521   8.941   5.824 -0.0837  0.1926  0.3381
    4sF      GO  397   9.381   9.476   5.553 -0.0947 -0.0872 -0.1461
    5sR      GN  398   9.570   9.348   5.549 -0.3721  0.1091  0.1064
    5sR      GC  399   9.620   9.368   5.417  0.5275  0.1746 -0.3805
    5sR     BCG  400   9.748   9.586   5.387 -0.0464  0.2315  0.3271
    5sR     BCZ  401   9.897   9.548   5.056  0.4737  0.0141 -0.3819
    5sR    BNN1  402   9.954   9.657   5.023  0.4201 -0.0613  0.3728
    5sR    BNN2  403   9.793   9.478   5.009 -0.0461 -0.1951  0.0371
    5sR      GO  404   9.672   9.151   5.345 -0.2169 -0.1607 -0.2269
    6sHe     GN  405   9.508   9.284   5.236 -0.2463  0.3940 -0.0575
    6sHe     GC  406   9.463   9.170   5.144 -0.0727  0.1326  0.0128
    6sHe    BCG  407   9.217   9.188   5.114  0.0065  0.2486 -0.1298
    6sHe    BNE  408   9.084   9.002   5.148 -0.1794  0.0735  0.1563
    6sHe    BND  409   9.088   9.206   5.103 -0.0154  0.1106  0.1558
    6sHe     GO  410   9.556   9.153   4.927  0.1537 -0.1202  0.1924
    7sD      GN  411   9.524   8.979   5.048  0.0745 -0.0342 -0.0449
    7sD      GC  412   9.527   8.892   4.943 -0.2455  0.3822  0.1126
    7sD     BCG  413   9.697   8.714   5.003 -0.1465 -0.1233 -0.3414
    7sD    BOE1  414   9.745   8.652   5.120  0.2987 -0.3019  0.3875
    7sD    BOE2  415   9.774   8.680   4.906 -0.1903 -0.2067 -0.0626
    7sD      GO  416   9.308   8.863   4.883  0.0568  0.1278  0.0597
    8sSp     GN  417   9.461   8.899   4.713  0.1212 -0.0746 -0.1280
    8sSp     GC  418   9.351   8.898   4.609 -0.0979  0.2383  0.2518
    8sSp    BCB  419   9.425   8.873   4.478 -0.0288  0.3799  0.1474
    8sSp     PX  420   9.335   8.932   4.230  0.3514  0.2929  0.0455
    8sSp     GO  421   9.199   8.721   4.663  0.5622 -0.1935  0.0844
    9sG      GN  422   9.109   8.935   4.651  0.2870  0.0588 -0.0237
    9sG      GC  423   8.971   8.891   4.702 -0.3817 -0.1323  0.1774
    9sG      GO  424   8.914   8.666   4.615  0.0777 -0.1305 -0.2513
   10sY      GN  425   8.885   8.717   4.833  0.0774 -0.3463 -0.0814
   10sY      GC  426   8.834   8.596   4.877  0.1503 -0.1801 -0.2123
   10sY     BCG  427   8.749   8.638   5.109  0.1363  0.2722 -0.3004
   10sY    BCE2  428   8.853   8.676   5.339 -0.1786  0.1116  0.4044
   10sY    BCE1  429   8.666   8.812   5.263 -0.0373  0.2729  0.1070
   10sY      GO  430   8.690   8.500   4.734 -0.0552  0.5349  0.0185
   11sE      GN  431   8.853   8.362   4.826 -0.2418 -0.3584  0.0523
   11sE      GC  432   8.796   8.241   4.766 -0.0378  0.0112  0.3447
   11sE     BCD  433   9.109   8.116   4.604  0.1189  0.0336  0.3664
   11sE    BOE1  434   9.149   8.228   4.566  0.0512 -0.2260  0.2383
   11sE    BOE2  435   9.172   8.041   4.678 -0.0747 -0.0692 -0.0221
   11sE      GO  436   8.650   8.130   4.909 -0.4911  0.2546 -0.1510
   12sV      GN  437   8.554   8.199   4.719 -0.0790 -0.2668 -0.1439
   12sV      GC  438   8.426   8.149   4.744 -0.0914 -0.2385  0.2975
   12sV     BCB  439   8.330   8.159   4.621  0.0329 -0.2282  0.0417
   12sV      GO  440   8.435   7.937   4.819 -0.0835  0.0595 -0.1330
   13sHe     GN  441   8.366   8.087   4.965  0.3433 -0.2990  0.1547
   13sHe     GC  442   8.352   7.987   5.069  0.6101 -0.1293  0.0150
   13sHe    BCG  443   8.193   7.799   5.062  0.2660 -0.0856  0.1008
   13sHe    BNE  444   8.192   7.598   5.186 -0.2502  0.0335  0.2178
   13sHe    BND  445   8.075   7.746   5.120 -0.1333 -0.0442  0.5250
   13sHe     GO  446   8.562   7.912   5.149 -0.0114  0.2740  0.2405
   14sHe     GN  447   8.430   7.997   5.301 -0.0597 -0.1013  0.3196
   14sHe     GC  448   8.530   7.972   5.419  0.0631  0.0668  0.4129
   14sHe    BCG  449   8.732   8.121   5.425  0.1359 -0.3614 -0.2338
   14sHe    BNE  450   8.789   8.312   5.532  0.2108 -0.1355  0.0473
   14sHe    BND  451   8.811   8.205   5.348  0.2937  0.0223 -0.0072
   14sHe     GO  452   8.419   7.946   5.612 -0.0444  0.1791  0.2611
   15sQ      GN  453   8.583   7.795   5.575 -0.1103 -0.3896  0.1504
   15sQ      GC  454   8.568   7.727   5.714 -0.2693 -0.0398  0.1096
   15sQ     BCD  455   8.296   7.561   5.607  0.1543 -0.0103 -0.3559
   15sQ     BOD  456   8.317   7.509   5.513  0.0253 -0.1606  0.3792
   15sQ     BND  457   8.274   7.522   5.737 -0.0639  0.2282  0.3856
   15sQ      GO  458   8.792   7.662   5.797  0.3192 -0.6227  0.0056
   16sK      GN  459   8.680   7.804   5.929  0.3795 -0.2618  0.0506
   16sK      GC  460   8.770   7.817   6.027  0.3467 -0.1337 -0.1536
   16sK     BCG  461   8.678   7.969   6.199 -0.2544  0.1121 -0.3239
   16sK     BCE  462   8.585   8.076   6.399  0.1291 -0.1324 -0.0841
   16sK      GO  463   8.863   7.606   6.066  0.1856  0.2129  0.2752
   17sL      GN  464   9.000   7.775   6.036 -0.1811 -0.0670 -0.4730
   17sL      GC  465   9.120   7.701   6.041  0.0694  0.0571 -0.2861
   17sL     BCG  466   9.195   7.606   5.823 -0.1866 -0.0062  0.0479
   17sL      GO  467   9.301   7.819   6.136 -0.4866 -0.0069 -0.0739
   18sV      GN  468   9.213   7.638   6.215  0.0026  0.1075 -0.0527
   18sV      GC  469   9.305   7.613   6.321 -0.2001 -0.0396 -0.2570
   18sV     BCB  470   9.242   7.607   6.470  0.2669 -0.1153  0.0545
   18sV      GO  471   9.494   7.459   6.262  0.0447 -0.0327 -0.2229
   19sF      GN  472   9.561   7.674   6.272  0.2129 -0.0265 -0.1565
   19sF      GC  473   9.699   7.650   6.235  0.0307  0.2745  0.2728
   19sF     BCG  474   9.745   7.627   5.974  0.2889 -0.1039 -0.5564
   19sF    BCE1  475   9.601   7.627   5.796 -0.0399 -0.0129  0.0236
   19sF    BCE2  476   9.795   7.769   5.798 -0.0957 -0.0849  0.2188
   19sF      GO  477   9.849   7.773   6.357  0.0200 -0.2250  0.0635
   20sF      GN  478   9.904   7.565   6.313  0.2646  0.2343 -0.0045
   20sF      GC  479  10.018   7.572   6.392  0.1885  0.0351  0.3694
   20sF     BCG  480  10.049   7.384   6.541  0.0699  0.3211  0.2097
   20sF    BCE1  481   9.967   7.247   6.727 -0.3176 -0.0982 -0.0956
   20sF    BCE2  482  10.160   7.197   6.600 -0.0925  0.2403 -0.0668
   20sF      GO  483  10.197   7.623   6.237 -0.1339  0.2618 -0.0969
   21sA      GN  484  10.140   7.776   6.388  0.2929 -0.3711 -0.0900
   21sA      GC  485  10.241   7.887   6.372  0.3968  0.3656  0.2185
   21sA      GO  486  10.170   8.092   6.466  0.0873 -0.1747  0.5424
   22sE      GN  487  10.054   8.020   6.282  0.2095 -0.0702  0.1233
   22sE      GC  488   9.964   8.128   6.286 -0.0491 -0.2834  0.7185
   22sE     BCD  489  10.193   8.411   6.155 -0.0178  0.0435 -0.2026
   22sE    BOE1  490  10.098   8.432   6.053  0.0759 -0.3565  0.1683
   22sE    BOE2  491  10.283   8.501   6.118 -0.0860  0.1566 -0.0793
   22sE      GO  492   9.725   8.037   6.224 -0.3088 -0.2725 -0.1941
   23sD      GN  493   9.772   8.238   6.341 -0.2079 -0.0193  0.2677
   23sD      GC  494   9.615   8.269   6.366 -0.2472  0.2252  0.3851
   23sD     BCG  495   9.558   8.437   6.520 -0.3317 -0.3482  0.2607
   23sD    BOE1  496   9.484   8.543   6.515 -0.2015  0.1801 -0.1804
   23sD    BOE2  497   9.644   8.442   6.612 -0.0807  0.1505 -0.0604
   23sD      GO  498   9.484   8.217   6.160  0.1846  0.1896 -0.2576
   24sV      GN  499   9.657   8.371   6.127  0.1036  0.0216  0.1853
   24sV      GC  500   9.625   8.409   5.979 -0.0276  0.3427  0.0976
   24sV     BCB  501   9.594   8.554   5.954  0.1115 -0.0620 -0.3267
   24sV      GO  502   9.764   8.273   5.816 -0.0273  0.0217 -0.2262
   25sG      GN  503   9.544   8.205   5.873  0.0370 -0.0247  0.0069
   25sG      GC  504   9.551   8.085   5.789 -0.1351  0.1359  0.1313
   25sG      GO  505   9.459   8.136   5.571  0.4403  0.0722 -0.2924
   26sS      GN  506   9.298   8.138   5.742 -0.3776  0.0977  0.2058
   26sS      GC  507   9.197   8.179   5.661  0.1370  0.6112  0.4543
   26sS     BOG  508   9.031   8.000   5.654  0.1457  0.0250  0.3141
   26sS     BPG  509   8.948   8.019   5.701 -0.1180  0.0836 -0.2505
   26sS      GO  510   9.146   8.419   5.687 -0.3169  0.0032 -0.0082
   27sN      GN  511   9.216   8.356   5.486 -0.0012  0.1545 -0.3464
   27sN      GC  512   9.213   8.491   5.420  0.0063 -0.1209 -0.0690
   27sN     BCG  513   9.396   8.639   5.481  0.0946 -0.0045  0.1066
   27sN     BND  514   9.394   8.731   5.355  0.2005  0.3996  0.2106
   27sN     BOD  515   9.511   8.584   5.474 -0.0006 -0.1964  0.2533
   27sN      GO  516   9.129   8.485   5.186  0.3264  0.1108 -0.1573
   28sK      GN  517   9.254   8.311   5.217  0.2418 -0.0488  0.0578
   28sK      GC  518   9.229   8.253   5.088 -0.1982 -0.5659 -0.1605
   28sK     BCG  519   9.365   8.380   4.915 -0.2053 -0.0441 -0.3905
   28sK     BCE  520   9.488   8.362   4.705 -0.4085 -0.2959  0.0374
   28sK      GO  521   9.206   8.012   5.128  0.4678  0.0121  0.1083
   29sG      GN  522   9.031   8.090   5.020 -0.0706 -0.6613 -0.2847
   29sG      GC  523   8.935   7.983   5.038 -0.2450  0.1861  0.3649
   29sG      GO  524   9.053   7.780   5.013  0.1330 -0.0209 -0.0499
   30sA      GN  525   8.925   7.822   5.191  0.1892  0.5860  0.1911
   30sA      GC  526   8.954   7.696   5.267  0.1966  0.3571 -0.4480
   30sA      GO  527   8.743   7.643   5.391  0.1134  0.0048 -0.1725
   31sI      GN  528   8.837   7.451   5.270  0.2190 -0.2953 -0.0906
   31sI      GC  529   8.703   7.375   5.283 -0.3527 -0.0476 -0.1172
   31sI     BCG  530   8.527   7.469   5.127 -0.1070 -0.4729  0.0292
   31sI      GO  531   8.770   7.143   5.322  0.0196  0.0080 -0.1213
   32sI      GN  532   8.640   7.250   5.491 -0.3307 -0.0529  0.2915
   32sI      GC  533   8.634   7.138   5.574 -0.0294  0.1117 -0.1151
   32sI     BCG  534   8.856   7.126   5.719  0.0703  0.1209 -0.0718
   32sI      GO  535   8.415   7.129   5.664  0.1545 -0.0469  0.0972
   33sG      GN  536   8.493   6.922   5.599  0.2387 -0.3851  0.1395
   33sG      GC  537   8.375   6.860   5.652 -0.1927  0.7899  0.1218
   33sG      GO  538   8.447   6.624   5.734 -0.4890 -0.4252  0.4028
   34sL      GN  539   8.329   6.763   5.853 -0.3735 -0.1959  0.0054
   34sL      GC  540   8.316   6.670   5.979 -0.1294  0.0674  0.0490
   34sL     BCG  541   8.262   6.805   6.179  0.3169  0.1495 -0.2835
   34sL      GO  542   8.269   6.445   5.879 -0.3329  0.3853 -0.0253
   35sM      GN  543   8.085   6.563   5.857 -0.1917 -0.1760 -0.1032
   35sM      GC  544   8.009   6.459   5.781 -0.0141 -0.0543 -0.0954
   35sM     BSD  545   7.888   6.232   6.041  0.0777  0.4978  0.1470
   35sM      GO  546   7.860   6.548   5.609 -0.2706  0.3515 -0.3883
   36sV      GN  547   7.789   6.579   5.819 -0.0519 -0.1457 -0.4715
   36sV      GC  548   7.663   6.627   5.802 -0.0523 -0.0940  0.6089
   36sV     BCB  549   7.537   6.620   5.898 -0.1191  0.1959 -0.1256
   36sV      GO  550   7.662   6.778   5.606 -0.0429 -0.1639 -0.4167
   37sG      GN  551   7.808   6.857   5.771  0.0085  0.3351  0.1229
   37sG      GC  552   7.852   6.968   5.696 -0.2379  0.3165  0.3619
   37sG      GO  553   8.068   6.917   5.586  0.0142  0.3867 -0.1450
   38sG      GN  554   7.875   6.934   5.462 -0.2733 -0.2168 -0.1247
   38sG      GC  555   7.953   6.895   5.345  0.1740 -0.1235 -0.0457
   38sG      GO  556   7.875   7.035   5.178  0.1037  0.2397 -0.0654
   39sV      GN  557   8.100   7.042   5.257  0.0944 -0.0435  0.1733
   39sV      GC  558   8.150   7.146   5.158 -0.0774 -0.0621 -0.3116
   39sV     BCB  559   8.302   7.125   5.177 -0.2126 -0.0523 -0.3199
   39sV      GO  560   8.044   7.103   4.945 -0.4184 -0.1760 -0.0194
   40sV      GN  561   8.025   7.327   5.017  0.0894 -0.1667 -0.2891
   40sV      GC  562   7.912   7.379   4.916 -0.2098  0.1387  0.0456
   40sV     BCB  563   7.828   7.513   4.954 -0.3636  0.1176 -0.1113
   40sV      GO  564   7.947   7.296   4.695 -0.0222 -0.1602 -0.1288
    1sD      GN  565   3.776   8.419   4.410  0.3505 -0.1178  0.5296
    1sD      GC  566   3.866   8.405   4.285 -0.0101  0.0802 -0.2144
    1sD     BCG  567   3.955   8.616   4.198 -0.0391 -0.3534  0.0350
    1sD    BOE1  568   3.899   8.740   4.184  0.3250  0.1094 -0.2658
    1sD    BOE2  569   4.069   8.627   4.139  0.2155  0.2097  0.0951
    1sD      GO  570   3.983   8.196   4.305  0.0624 -0.0355 -0.2112
    2sA      GN  571   3.932   8.254   4.079  0.0212 -0.2942 -0.0496
    2sA      GC  572   3.965   8.135   4.033  0.0162  0.2478  0.2498
    2sA      GO  573   4.160   8.048   4.143 -0.1847  0.0506 -0.5199
    3sE      GN  574   3.981   7.909   4.137 -0.2955 -0.2094  0.4534
    3sE      GC  575   4.042   7.790   4.209 -0.1544 -0.3726 -0.0815
    3sE     BCD  576   3.769   7.885   4.423  0.2222 -0.3627  0.0662
    3sE    BOE1  577   3.658   7.889   4.373  0.3314 -0.3079 -0.1844
    3sE    BOE2  578   3.764   7.944   4.540  0.2341 -0.5390 -0.0304
    3sE      GO  579   4.134   7.623   4.069 -0.2590  0.3473 -0.0868
    4sF      GN  580   4.264   7.753   4.205  0.0712  0.1867 -0.1996
    4sF      GC  581   4.403   7.687   4.171  0.1274  0.2639  0.2526
    4sF     BCG  582   4.483   7.750   3.953 -0.2917 -0.1253 -0.0896
    4sF    BCE1  583   4.441   7.936   3.812  0.0954  0.0360 -0.3698
    4sF    BCE2  584   4.667   7.880   3.860 -0.3375 -0.0267  0.0519
    4sF      GO  585   4.557   7.655   4.354 -0.0324  0.3890 -0.1585
    5sR      GN  586   4.479   7.478   4.253  0.3085  0.0536 -0.0486
    5sR      GC  587   4.554   7.381   4.324  0.5058  0.0379  0.0253
    5sR     BCG  588   4.432   7.243   4.499  0.1849 -0.1659  0.0039
    5sR     BCZ  589   4.267   7.048   4.752 -0.0276  0.1496  0.1422
    5sR    BNN1  590   4.137   7.050   4.701 -0.1000  0.0430 -0.3918
    5sR    BNN2  591   4.259   7.025   4.876 -0.3552  0.1763  0.0953
    5sR      GO  592   4.741   7.319   4.193 -0.1090  0.1844 -0.1435
    6sHe     GN  593   4.760   7.400   4.400 -0.2419 -0.2062 -0.1723
    6sHe     GC  594   4.915   7.400   4.395  0.0134 -0.0151 -0.1807
    6sHe    BCG  595   5.057   7.570   4.281 -0.2398 -0.4167 -0.0512
    6sHe    BNE  596   5.109   7.590   4.069  0.1758  0.1767  0.4045
    6sHe    BND  597   5.099   7.703   4.228 -0.1612  0.3152 -0.3127
    6sHe     GO  598   5.023   7.356   4.607  0.0858  0.1586 -0.1303
    7sD      GN  599   5.080   7.250   4.416 -0.3420  0.2247  0.3949
    7sD      GC  600   5.193   7.189   4.479 -0.0976  0.0525  0.1050
    7sD     BCG  601   5.201   6.940   4.489 -0.1650  0.2002 -0.2697
    7sD    BOE1  602   5.141   6.936   4.605 -0.2841  0.2038 -0.2713
    7sD    BOE2  603   5.217   6.841   4.429 -0.3329  0.0594  0.3720
    7sD      GO  604   5.385   7.334   4.446  0.1748 -0.1222  0.0229
    8sSp     GN  605   5.363   7.258   4.656 -0.2789 -0.1585  0.0225
    8sSp     GC  606   5.476   7.344   4.716 -0.3315 -0.1676  0.0807
    8sSp    BCB  607   5.415   7.398   4.845  0.2768 -0.2303  0.0097
    8sSp     PX  608   5.368   7.655   4.905  0.0010  0.2133  0.1068
    8sSp     GO  609   5.675   7.202   4.728  0.2822 -0.2473  0.0081
    9sG      GN  610   5.682   7.381   4.572 -0.1487  0.0658  0.2621
    9sG      GC  611   5.825   7.335   4.525  0.0241  0.2537  0.0605
    9sG      GO  612   6.004   7.434   4.650 -0.1718  0.1973 -0.0685
   10sY      GN  613   5.975   7.211   4.648 -0.3059  0.3756 -0.3866
   10sY      GC  614   6.092   7.172   4.741 -0.2948 -0.4354 -0.0695
   10sY     BCG  615   6.036   7.184   4.992 -0.0032  0.2913  0.3484
   10sY    BCE2  616   5.954   6.987   5.104  0.3239 -0.0358 -0.0527
   10sY    BCE1  617   6.122   7.114   5.214 -0.2203 -0.2693 -0.2313
   10sY      GO  618   6.218   6.973   4.684 -0.0754 -0.2751  0.3113
   11sE      GN  619   6.322   7.134   4.803 -0.2050 -0.2343 -0.0750
   11sE      GC  620   6.440   7.065   4.805 -0.3672 -0.6641 -0.2914
   11sE     BCD  621   6.589   7.143   4.475  0.2164 -0.2191  0.1036
   11sE    BOE1  622   6.589   7.235   4.381  0.2817 -0.1323 -0.1121
   11sE    BOE2  623   6.633   7.023   4.430 -0.3753 -0.2198  0.0210
   11sE      GO  624   6.545   7.101   5.009  0.1610  0.1287  0.1440
   12sV      GN  625   6.550   6.885   4.929 -0.2088  0.2933 -0.2315
   12sV      GC  626   6.597   6.819   5.053 -0.0443  0.1331 -0.0827
   12sV     BCB  627   6.627   6.685   4.961  0.1520  0.0953  0.2869
   12sV      GO  628   6.773   6.948   5.152  0.1791  0.0716  0.2105
   13sHe     GN  629   6.581   6.962   5.259  0.2354 -0.1363  0.3065
   13sHe     GC  630   6.612   7.069   5.352  0.2733 -0.3240  0.1449
   13sHe    BCG  631   6.775   6.993   5.505 -0.0441  0.1734 -0.0983
   13sHe    BNE  632   6.773   6.900   5.715 -0.3625  0.1580 -0.0347
   13sHe    BND  633   6.897   6.959   5.551  0.0545 -0.4448  0.2422
   13sHe     GO  634   6.650   7.293   5.249 -0.2188  0.2086 -0.3396
   14sHe     GN  635   6.458   7.271   5.376 -0.0014 -0.1088  0.0826
   14sHe     GC  636   6.398   7.407   5.380 -0.5342 -0.1785 -0.1207
   14sHe    BCG  637   6.293   7.510   5.193  0.2263 -0.3069  0.4045
   14sHe    BNE  638   6.267   7.685   5.051  0.1088 -0.0769 -0.2678
   14sHe    BND  639   6.286   7.467   5.064 -0.4649  0.3246 -0.0865
   14sHe     GO  640   6.306   7.466   5.588  0.4213  0.4424  0.0398
   15sQ      GN  641   6.435   7.623   5.485  0.1060  0.2171 -0.2741
   15sQ      GC  642   6.374   7.727   5.574 -0.2392 -0.3630  0.5134
   15sQ     BCD  643   6.652   7.861   5.717 -0.1132 -0.2172  0.1257
   15sQ     BOD  644   6.640   7.965   5.795 -0.1858  0.0986  0.0016
   15sQ     BND  645   6.761   7.855   5.629  0.4009  0.4159 -0.0262
   15sQ      GO  646   6.198   7.832   5.438 -0.1125  0.5384 -0.0715
   16sK      GN  647   6.160   7.814   5.670 -0.0971  0.2334  0.2948
   16sK      GC  648   6.055   7.906   5.655  0.2092  0.0998 -0.2859
   16sK     BCG  649   5.854   7.752   5.679 -0.0483  0.2391 -0.0886
   16sK     BCE  650   5.660   7.634   5.791  0.5453 -0.0535  0.1100
   16sK      GO  651   6.156   8.123   5.708  0.0757 -0.4097  0.4821
   17sL      GN  652   6.077   8.092   5.496 -0.0688 -0.4144  0.0026
   17sL      GC  653   6.123   8.227   5.439  0.2525 -0.1029 -0.0544
   17sL     BCG  654   6.283   8.191   5.243 -0.2855  0.3598  0.2941
   17sL      GO  655   5.948   8.412   5.434  0.0319  0.2560  0.1351
   18sV      GN  656   6.155   8.482   5.510  0.2815 -0.0399 -0.1615
   18sV      GC  657   6.099   8.619   5.540  0.0415  0.0307  0.0769
   18sV     BCB  658   6.176   8.721   5.635  0.3871  0.1898  0.2951
   18sV      GO  659   5.962   8.691   5.358 -0.1882 -0.2047 -0.2514
   19sF      GN  660   6.167   8.630   5.280  0.0019  0.1068  0.6476
   19sF      GC  661   6.146   8.669   5.120  0.5772 -0.1866 -0.6072
   19sF     BCG  662   6.313   8.559   4.959 -0.1408 -0.4464  0.0732
   19sF    BCE1  663   6.410   8.571   4.736  0.1533  0.1477  0.1063
   19sF    BCE2  664   6.550   8.514   4.917  0.3251  0.3541 -0.1101
   19sF      GO  665   5.906   8.617   5.068  0.1887  0.3020 -0.1570
   20sF      GN  666   6.008   8.791   4.979 -0.3570 -0.0793  0.0431
   20sF      GC  667   5.910   8.830   4.899  0.1138 -0.0554  0.3222
   20sF     BCG  668   5.965   8.993   4.727 -0.1127 -0.0397  0.2275
   20sF    BCE1  669   6.031   8.919   4.519 -0.3463  0.2280  0.2515
   20sF    BCE2  670   5.849   9.074   4.550 -0.1413  0.1497 -0.2799
   20sF      GO  671   5.811   8.643   4.816  0.2565  0.4911  0.3521
   21sA      GN  672   5.701   8.809   4.888 -0.0927  0.5235 -0.4209
   21sA      GC  673   5.564   8.749   4.887 -0.1856 -0.0822 -0.4113
   21sA      GO  674   5.408   8.917   4.822 -0.2134 -0.4891 -0.2456
   22sE      GN  675   5.372   8.718   4.764  0.4071 -0.1220 -0.0513
   22sE      GC  676   5.233   8.742   4.688 -0.3092  0.1593 -0.0847
   22sE     BCD  677   5.293   8.845   4.339 -0.0179  0.2046  0.0169
   22sE    BOE1  678   5.339   8.917   4.408  0.3078 -0.4198  0.1011
   22sE    BOE2  679   5.281   8.820   4.230  0.0175 -0.0198  0.4191
   22sE      GO  680   5.066   8.582   4.760 -0.1127  0.0066  0.2302
   23sD      GN  681   4.995   8.799   4.762 -0.1328 -0.1266  0.5314
   23sD      GC  682   4.863   8.776   4.802  0.1947 -0.0144  0.2497
   23sD     BCG  683   4.708   8.947   4.874  0.2670  0.1812 -0.0916
   23sD    BOE1  684   4.670   8.985   4.985 -0.0241 -0.2089 -0.3605
   23sD    BOE2  685   4.715   9.044   4.805  0.1802  0.1254  0.0697
   23sD      GO  686   4.762   8.582   4.693  0.0518  0.1337  0.1063
   24sV      GN  687   4.852   8.732   4.546  0.3613  0.0783 -0.1359
   24sV      GC  688   4.814   8.663   4.430  0.4404 -0.2869  0.0484
   24sV     BCB  689   4.835   8.750   4.316 -0.2613  0.0597 -0.2570
   24sV      GO  690   4.823   8.421   4.449  0.0709  0.0972  0.1430
   25sG      GN  691   5.042   8.499   4.488  0.0878  0.0656  0.3988
   25sG      GC  692   5.097   8.363   4.483  0.3268  0.2311 -0.1384
   25sG      GO  693   5.281   8.342   4.634  0.0838  0.3937  0.3701
   26sS      GN  694   5.111   8.173   4.658  0.4091 -0.1035  0.3037
   26sS      GC  695   5.189   8.096   4.763  0.2819 -0.2096 -0.0543
   26sS     BOG  696   5.073   7.909   4.873 -0.1055 -0.0534 -0.1043
   26sS     BPG  697   5.139   7.843   4.891  0.0626  0.3551  0.0886
   26sS      GO  698   5.418   8.119   4.712  0.1156  0.1725  0.2286
   27sN      GN  699   5.337   8.224   4.910 -0.0358  0.0638  0.2557
   27sN      GC  700   5.460   8.293   4.966 -0.2604 -0.1548  0.1665
   27sN     BCG  701   5.474   8.422   5.168  0.2469 -0.0640  0.2961
   27sN     BND  702   5.552   8.346   5.243 -0.1591 -0.0013  0.0764
   27sN     BOD  703   5.403   8.527   5.198 -0.3945  0.3705 -0.0148
   27sN      GO  704   5.641   8.140   4.926  0.0068  0.4370 -0.0459
   28sK      GN  705   5.663   8.343   4.822  0.0213 -0.3124 -0.2083
   28sK      GC  706   5.786   8.295   4.754 -0.0679  0.2705  0.1943
   28sK     BCG  707   5.741   8.271   4.504  0.1234 -0.2025 -0.2376
   28sK     BCE  708   5.637   8.464   4.368 -0.3544  0.0356 -0.2367
   28sK      GO  709   5.978   8.368   4.864 -0.0374  0.0780  0.3157
   29sG      GN  710   5.956   8.144   4.821 -0.3394 -0.1324 -0.3540
   29sG      GC  711   6.076   8.114   4.880 -0.3421 -0.2554 -0.0620
   29sG      GO  712   6.197   7.957   4.776 -0.3203  0.3282  0.2488
   30sA      GN  713   6.288   8.162   4.792  0.2579 -0.1190  0.3322
   30sA      GC  714   6.417   8.123   4.726  0.3108 -0.3029 -0.1415
   30sA      GO  715   6.581   8.076   4.896 -0.2895 -0.0788 -0.2962
   31sI      GN  716   6.500   7.909   4.761 -0.2304 -0.3749  0.0473
   31sI      GC  717   6.564   7.796   4.823 -0.1440 -0.2641 -0.1412
   31sI     BCG  718   6.466   7.599   4.725 -0.0408 -0.0968  0.1117
   31sI      GO  719   6.788   7.843   4.886  0.1517  0.3325 -0.2002
   32sI      GN  720   6.643   7.815   5.044  0.1185  0.0947 -0.1703
   32sI      GC  721   6.737   7.825   5.146  0.0609 -0.1898 -0.2423
   32sI     BCG  722   6.819   8.041   5.241  0.0506 -0.1311 -0.0956
   32sI      GO  723   6.692   7.640   5.317  0.2628 -0.2799 -0.0538
   33sG      GN  724   6.914   7.672   5.234 -0.0897 -0.0966  0.0698
   33sG      GC  725   6.970   7.563   5.323 -0.0525  0.7619  0.5571
   33sG      GO  726   7.038   7.607   5.530 -0.1169 -0.1283 -0.2612
   34sL      GN  727   6.880   7.457   5.515  0.1690 -0.1857 -0.0144
   34sL      GC  728   6.869   7.459   5.674  0.4086  0.0301 -0.1386
   34sL     BCG  729   6.673   7.342   5.747  0.3167 -0.3771 -0.0663
   34sL      GO  730   7.065   7.503   5.792 -0.2352  0.0312  0.0625
   35sM      GN  731   7.075   7.311   5.649 -0.1617 -0.1633 -0.4278
   35sM      GC  732   7.217   7.257   5.677  0.0779 -0.4943 -0.1145
   35sM     BSD  733   7.226   6.911   5.790  0.1446 -0.0079  0.0945
   35sM      GO  734   7.366   7.326   5.499  0.0298  0.3998  0.1205
   36sV      GN  735   7.192   7.200   5.424  0.1235 -0.0409 -0.0357
   36sV      GC  736   7.236   7.177   5.284 -0.2630 -0.2581  0.0805
   36sV     BCB  737   7.189   7.028   5.283 -0.0867  0.3765 -0.0203
   36sV      GO  738   7.153   7.345   5.134  0.1546 -0.2838 -0.2589
   37sG      GN  739   7.369   7.367   5.191 -0.1938  0.0440 -0.2652
   37sG      GC  740   7.397   7.473   5.109  0.0476  0.0495  0.1779
   37sG      GO  741   7.292   7.667   5.198  0.1690  0.1197  0.0138
   38sG      GN  742   7.508   7.644   5.187  0.0707 -0.3246  0.1506
   38sG      GC  743   7.543   7.777   5.227  0.0670 -0.0610  0.0333
   38sG      GO  744   7.398   7.915   5.105 -0.0744 -0.3070 -0.0550
   39sV      GN  745   7.433   7.940   5.335  0.2092 -0.1479 -0.1488
   39sV      GC  746   7.364   8.070   5.341  0.1079  0.1513 -0.1901
   39sV     BCB  747   7.245   8.020   5.431  0.1718  0.3457 -0.1008
   39sV      GO  748   7.518   8.277   5.330  0.1396  0.3324  0.0871
   40sV      GN  749   7.349   8.269   5.178  0.3841 -0.5857 -0.2002
   40sV      GC  750   7.385   8.402   5.113 -0.0427  0.0772  0.1328
   40sV     BCB  751   7.421   8.394   4.981  0.2699 -0.0825  0.3337
   40sV      GO  752   7.275   8.599   5.183 -0.2159 -0.1472  0.1987
    1sD      GN  753   4.573   6.845   5.757 -0.1288 -0.0691  0.0897
    1sD      GC  754   4.604   6.706   5.813  0.1564  0.2676  0.1808
    1sD     BCG  755   4.837   6.628   5.760  0.2633 -0.1942  0.0419
    1sD    BOE1  756   4.929   6.676   5.835 -0.1029  0.2068 -0.4785
    1sD    BOE2  757   4.880   6.563   5.670  0.2926  0.2891  0.4021
    1sD      GO  758   4.549   6.698   6.044  0.1202  0.0878 -0.2146
    2sA      GN  759   4.516   6.505   5.949 -0.2831  0.2504 -0.1205
    2sA      GC  760   4.495   6.449   6.067 -0.0064  0.3479 -0.0448
    2sA      GO  761   4.597   6.229   6.070  0.2549 -0.3936 -0.0544
    3sE      GN  762   4.644   6.378   6.216 -0.2409  0.0286  0.0889
    3sE      GC  763   4.748   6.306   6.295 -0.2032  0.1919  0.0552
    3sE     BCD  764   4.788   6.588   6.522  0.1738  0.2857  0.0711
    3sE    BOE1  765   4.668   6.563   6.540 -0.1285  0.1060  0.2811
    3sE    BOE2  766   4.845   6.685   6.504  0.1121  0.0495 -0.0032
    3sE      GO  767   4.698   6.076   6.338  0.4385  0.1577  0.0107
    4sF      GN  768   4.899   6.099   6.280  0.0543 -0.0470 -0.0569
    4sF      GC  769   4.944   5.955   6.294  0.3112  0.1375 -0.4439
    4sF     BCG  770   5.148   5.899   6.169 -0.0457 -0.1707  0.1832
    4sF    BCE1  771   5.283   5.977   5.998 -0.0789  0.2781 -0.2169
    4sF    BCE2  772   5.392   5.878   6.189 -0.0433 -0.0669  0.1795
    4sF      GO  773   5.024   5.905   6.525 -0.3471  0.0784 -0.0266
    5sR      GN  774   4.884   5.759   6.428 -0.0600 -0.1513 -0.4741
    5sR      GC  775   4.901   5.661   6.530  0.0891  0.0843  0.2412
    5sR     BCG  776   4.679   5.654   6.639 -0.1241  0.0269 -0.4613
    5sR     BCZ  777   4.472   5.358   6.668  0.2654  0.0519 -0.3957
    5sR    BNN1  778   4.521   5.246   6.659  0.1378 -0.0275  0.3609
    5sR    BNN2  779   4.477   5.464   6.603  0.0522 -0.2092  0.2414
    5sR      GO  780   5.078   5.514   6.454  0.2110 -0.1435  0.3009
    6sHe     GN  781   5.085   5.595   6.670 -0.2551 -0.3943  0.0501
    6sHe     GC  782   5.234   5.570   6.693  0.1264  0.0512 -0.0804
    6sHe    BCG  783   5.373   5.764   6.648  0.0653  0.1094  0.0570
    6sHe    BNE  784   5.387   5.975   6.712 -0.1467  0.3179 -0.1311
    6sHe    BND  785   5.474   5.816   6.592 -0.0711 -0.0368 -0.0945
    6sHe     GO  786   5.276   5.490   6.928  0.1699  0.0469 -0.0268
    7sD      GN  787   5.387   5.392   6.755  0.0256 -0.2364 -0.0460
    7sD      GC  788   5.470   5.300   6.845  0.0236  0.0960 -0.0385
    7sD     BCG  789   5.583   5.123   6.717 -0.1391 -0.0284  0.3787
    7sD    BOE1  790   5.710   5.165   6.674  0.1646 -0.2776  0.2597
    7sD    BOE2  791   5.536   5.024   6.677 -0.1732  0.0468  0.5393
    7sD      GO  792   5.545   5.430   7.028 -0.1003 -0.1601 -0.0273
    8sSp     GN  793   5.455   5.231   7.070 -0.4970 -0.0045  0.0702
    8sSp     GC  794   5.467   5.233   7.212  0.1010 -0.1667  0.0894
    8sSp    BCB  795   5.314   5.194   7.265 -0.2070 -0.1181  0.1613
    8sSp     PX  796   5.222   4.955   7.246 -0.1519 -0.1473 -0.0202
    8sSp     GO  797   5.681   5.134   7.267  0.4291 -0.1668 -0.1265
    9sG      GN  798   5.675   5.366   7.305 -0.3380 -0.0968 -0.0340
    9sG      GC  799   5.811   5.366   7.347  0.4812 -0.1388 -0.0017
    9sG      GO  800   5.867   5.538   7.512  0.4658  0.1034  0.1520
   10sY      GN  801   5.905   5.316   7.535 -0.3397  0.4010 -0.6853
   10sY      GC  802   5.970   5.326   7.673  0.0079 -0.4182  0.1811
   10sY     BCG  803   5.837   5.342   7.875  0.1503  0.0004 -0.2334
   10sY    BCE2  804   5.886   5.276   8.109 -0.1250  0.0882  0.1454
   10sY    BCE1  805   5.651   5.262   8.021  0.0976  0.2164  0.5381
   10sY      GO  806   6.175   5.194   7.721  0.3634 -0.0207 -0.2293
   11sE      GN  807   6.158   5.412   7.750 -0.2224  0.0766 -0.3590
   11sE      GC  808   6.302   5.425   7.778  0.2223 -0.1973  0.0254
   11sE     BCD  809   6.221   5.789   7.815 -0.2419 -0.1116 -0.1601
   11sE    BOE1  810   6.278   5.900   7.842  0.0375  0.3379  0.4493
   11sE    BOE2  811   6.110   5.760   7.892 -0.3420  0.1662  0.0980
   11sE      GO  812   6.378   5.257   7.902 -0.0891 -0.0900  0.0703
   12sV      GN  813   6.488   5.300   7.705  0.1519  0.1127  0.0332
   12sV      GC  814   6.584   5.194   7.715  0.3470  0.0262 -0.2621
   12sV     BCB  815   6.687   5.231   7.598 -0.0555 -0.0434  0.0331
   12sV      GO  816   6.642   5.193   7.964 -0.1058 -0.1491  0.1564
   13sHe     GN  817   6.540   5.007   7.893  0.2480  0.3623  0.2807
   13sHe     GC  818   6.517   4.927   8.020 -0.2704 -0.0351 -0.1425
   13sHe    BCG  819   6.703   4.844   8.166  0.3654 -0.0983 -0.0213
   13sHe    BNE  820   6.802   4.871   8.365  0.3098  0.2203  0.2437
   13sHe    BND  821   6.772   4.733   8.216 -0.1876  0.5846  0.2218
   13sHe     GO  822   6.366   5.043   8.176  0.0692  0.2096  0.0895
   14sHe     GN  823   6.277   4.873   8.054  0.0854 -0.1822  0.0137
   14sHe     GC  824   6.135   4.899   8.108  0.0407  0.1259 -0.1159
   14sHe    BCG  825   5.978   4.877   7.933  0.1521  0.0155 -0.0345
   14sHe    BNE  826   5.781   4.960   7.893 -0.0523 -0.1094  0.2319
   14sHe    BND  827   5.951   4.861   7.807  0.3213  0.0901  0.0032
   14sHe     GO  828   6.087   4.747   8.291 -0.2814  0.2029  0.2903
   15sQ      GN  829   6.030   4.958   8.330  0.2325 -0.0619  0.1713
   15sQ      GC  830   5.930   4.929   8.457  0.2207 -0.5529  0.0233
   15sQ     BCD  831   6.170   4.920   8.697 -0.0086  0.0105 -0.1983
   15sQ     BOD  832   6.224   4.805   8.748 -0.0015 -0.0638  0.1357
   15sQ     BND  833   6.279   4.993   8.644 -0.4335 -0.2566 -0.0274
   15sQ      GO  834   5.745   5.088   8.445 -0.0184  0.0346 -0.1116
   16sK      GN  835   5.674   4.859   8.407  0.1592 -0.6334  0.0544
   16sK      GC  836   5.533   4.899   8.391  0.2862 -0.0748 -0.1506
   16sK     BCG  837   5.408   4.715   8.270 -0.3273 -0.0592  0.1079
   16sK     BCE  838   5.215   4.582   8.163 -0.2432 -0.2844  0.2879
   16sK      GO  839   5.472   5.052   8.559  0.1150  0.0499 -0.2159
   17sL      GN  840   5.413   5.120   8.345  0.1175 -0.0589 -0.1049
   17sL      GC  841   5.333   5.250   8.386 -0.1517  0.0098 -0.2291
   17sL     BCG  842   5.453   5.448   8.289 -0.1535 -0.0204 -0.1733
   17sL      GO  843   5.104   5.208   8.383  0.1973 -0.1820 -0.5464
   18sV      GN  844   5.196   5.288   8.561 -0.1385 -0.4662 -0.1014
   18sV      GC  845   5.076   5.316   8.633 -0.1071 -0.0700 -0.1284
   18sV     BCB  846   5.092   5.326   8.788 -0.1968 -0.0177 -0.3633
   18sV      GO  847   4.894   5.411   8.488  0.0335  0.1234  0.0225
   19sF      GN  848   5.075   5.537   8.484 -0.0181 -0.1469 -0.3607
   19sF      GC  849   5.019   5.643   8.419  0.1071  0.2403  0.1891
   19sF     BCG  850   5.137   5.849   8.322 -0.3466  0.0243  0.0193
   19sF    BCE1  851   5.198   6.069   8.391  0.3499 -0.0696  0.0892
   19sF    BCE2  852   5.111   6.029   8.171  0.0616 -0.4067  0.1250
   19sF      GO  853   4.868   5.560   8.232  0.2760 -0.5518 -0.3327
   20sF      GN  854   4.807   5.717   8.384  0.3454 -0.1743  0.0994
   20sF      GC  855   4.674   5.760   8.322 -0.1371  0.4216 -0.3398
   20sF     BCG  856   4.474   5.775   8.453  0.4118 -0.3000 -0.3314
   20sF    BCE1  857   4.262   5.779   8.311 -0.1429 -0.0591 -0.4416
   20sF    BCE2  858   4.297   5.633   8.504  0.1484  0.5510  0.0169
   20sF      GO  859   4.727   5.959   8.195  0.2136  0.2508 -0.2337
   21sA      GN  860   4.627   5.784   8.118 -0.4013 -0.0780  0.0943
   21sA      GC  861   4.616   5.838   7.976 -0.1366  0.2721  0.0693
   21sA      GO  862   4.415   5.768   7.872  0.1595 -0.3209 -0.5194
   22sE      GN  863   4.467   5.991   7.847  0.1828  0.1560  0.1300
   22sE      GC  864   4.339   6.023   7.772 -0.2610  0.2558  0.1990
   22sE     BCD  865   4.333   6.378   7.855 -0.3709 -0.1048 -0.2036
   22sE    BOE1  866   4.262   6.328   7.941  0.1320  0.3673  0.4558
   22sE    BOE2  867   4.293   6.434   7.753 -0.0590 -0.0210 -0.1209
   22sE      GO  868   4.281   5.845   7.628  0.3282 -0.1655 -0.1551
   23sD      GN  869   4.118   5.962   7.749 -0.1938  0.1165  0.1727
   23sD      GC  870   3.998   5.868   7.727  0.1592  0.2522  0.1903
   23sD     BCG  871   3.766   5.887   7.833 -0.2826 -0.0358  0.1566
   23sD    BOE1  872   3.778   5.908   7.960 -0.3375 -0.0639 -0.4134
   23sD    BOE2  873   3.696   5.960   7.778 -0.2237  0.0983  0.5985
   23sD      GO  874   4.005   5.764   7.488  0.1814 -0.2035  0.0698
   24sV      GN  875   4.021   5.991   7.483 -0.2197 -0.0872 -0.1241
   24sV      GC  876   4.031   5.993   7.340 -0.2052  0.0688  0.0505
   24sV     BCB  877   3.974   6.132   7.278 -0.1812  0.0991 -0.2180
   24sV      GO  878   4.281   5.983   7.278 -0.0826  0.2427 -0.2442
   25sG      GN  879   4.163   5.823   7.192 -0.2001 -0.0126  0.1964
   25sG      GC  880   4.281   5.757   7.131  0.0994  0.3809  0.1681
   25sG      GO  881   4.439   5.913   7.037  0.1451 -0.4523 -0.0558
   26sS      GN  882   4.531   5.767   7.183 -0.0030  0.0153  0.1001
   26sS      GC  883   4.667   5.837   7.182 -0.2850  0.3965  0.2458
   26sS     BOG  884   4.696   5.911   7.392 -0.3778  0.0343  0.0390
   26sS     BPG  885   4.762   5.934   7.461  0.2990 -0.0119 -0.0215
   26sS      GO  886   4.823   5.745   7.016 -0.1297 -0.0234  0.2646
   27sN      GN  887   4.760   5.962   6.981  0.4153 -0.0217 -0.0411
   27sN      GC  888   4.851   5.983   6.863  0.0924  0.0397 -0.3036
   27sN     BCG  889   4.809   6.212   6.792  0.0297 -0.0009 -0.0425
   27sN     BND  890   4.712   6.314   6.808  0.0478  0.3855  0.0830
   27sN     BOD  891   4.927   6.252   6.766  0.3014 -0.1223 -0.3383
   27sN      GO  892   5.078   5.864   6.883  0.3671  0.1416  0.3130
   28sK      GN  893   5.012   5.986   7.047 -0.1885  0.2169  0.0216
   28sK      GC  894   5.139   5.972   7.106 -0.1595  0.0147  0.2700
   28sK     BCG  895   5.245   6.205   7.074  0.3171 -0.0708 -0.0068
   28sK     BCE  896   5.438   6.307   7.218 -0.2546  0.1019  0.0855
   28sK      GO  897   5.160   5.786   7.264  0.3810 -0.2149 -0.0636
   29sG      GN  898   5.309   5.800   7.094 -0.0927 -0.1344 -0.4517
   29sG      GC  899   5.382   5.703   7.138 -0.0566  0.4265  0.2403
   29sG      GO  900   5.564   5.781   7.264 -0.2494 -0.0734  0.3342
   30sA      GN  901   5.458   5.627   7.349  0.0313  0.1104  0.0064
   30sA      GC  902   5.528   5.628   7.487 -0.0753  0.4011  0.3190
   30sA      GO  903   5.502   5.833   7.607  0.0288 -0.0366  0.1106
   31sI      GN  904   5.460   5.653   7.724 -0.0796  0.2534 -0.0711
   31sI      GC  905   5.432   5.712   7.857  0.1496  0.0618 -0.1665
   31sI     BCG  906   5.182   5.707   7.936 -0.1833 -0.1668  0.3135
   31sI      GO  907   5.615   5.694   8.001  0.1722 -0.2316 -0.0267
   32sI      GN  908   5.497   5.887   7.942  0.0276 -0.1221  0.0283
   32sI      GC  909   5.578   5.981   8.005 -0.1404 -0.1623  0.1396
   32sI     BCG  910   5.472   6.203   7.944  0.0449  0.1091  0.0033
   32sI      GO  911   5.661   5.894   8.220  0.2391  0.1661 -0.1173
   33sG      GN  912   5.834   5.979   8.092  0.1776 -0.2491  0.3054
   33sG      GC  913   5.943   5.953   8.183  0.0513  0.4229 -0.1228
   33sG      GO  914   5.999   6.148   8.301 -0.0297  0.2356 -0.1685
   34sL      GN  915   5.903   5.983   8.411 -0.1877 -0.1270  0.3309
   34sL      GC  916   5.892   6.057   8.540  0.0388  0.1064 -0.1713
   34sL     BCG  917   5.688   6.210   8.553 -0.2090  0.0186  0.0840
   34sL      GO  918   5.953   5.906   8.716 -0.2106 -0.3087  0.0606
   35sM      GN  919   5.767   5.830   8.590  0.2582  0.2313 -0.2762
   35sM      GC  920   5.773   5.694   8.658  0.1363  0.0634  0.3702
   35sM     BSD  921   5.443   5.562   8.763 -0.3982 -0.1715 -0.4670
   35sM      GO  922   5.893   5.531   8.532  0.0882  0.2622  0.0267
   36sV      GN  923   5.979   5.583   8.736 -0.0184 -0.0393 -0.1287
   36sV      GC  924   6.092   5.486   8.747  0.0722 -0.1763  0.1873
   36sV     BCB  925   6.180   5.528   8.873  0.4242  0.0210  0.3460
   36sV      GO  926   6.038   5.269   8.657 -0.0419  0.3696  0.4096
   37sG      GN  927   5.852   5.339   8.770  0.2974  0.2330 -0.0671
   37sG      GC  928   5.764   5.239   8.723  0.3026 -0.1709 -0.4994
   37sG      GO  929   5.811   5.047   8.824  0.1311  0.2477 -0.0328
   38sG      GN  930   5.608   5.106   8.850  0.2030  0.0217  0.2547
   38sG      GC  931   5.566   4.993   8.907  0.0239  0.1466 -0.1843
   38sG      GO  932   5.342   4.915   8.837  0.0073 -0.3256 -0.0333
   39sV      GN  933   5.512   4.785   8.831 -0.1731 -0.0414  0.1715
   39sV      GC  934   5.446   4.672   8.776 -0.0184  0.2444 -0.1890
   39sV     BCB  935   5.547   4.545   8.770 -0.0045  0.0648  0.0813
   39sV      GO  936   5.217   4.655   8.868  0.0214  0.1414  0.1767
   40sV      GN  937   5.236   4.705   8.636  0.2364 -0.0780  0.0537
   40sV      GC  938   5.104   4.703   8.615  0.0858  0.1860 -0.0517
   40sV     BCB  939   5.021   4.816   8.546 -0.1623 -0.0902  0.0385
   40sV      GO  940   5.054   4.484   8.529 -0.0736  0.0645 -0.1247
    1sD      GN  941   6.892   5.371   9.015  0.0428 -0.0800  0.3836
    1sD      GC  942   6.933   5.220   8.927 -0.0605 -0.2164 -0.1253
    1sD     BCG  943   7.114   5.274   8.755  0.2440 -0.0058  0.0872
    1sD    BOE1  944   7.093   5.217   8.645  0.1758 -0.1469  0.0900
    1sD    BOE2  945   7.232   5.307   8.775 -0.1797  0.1311 -0.1716
    1sD      GO  946   6.932   5.033   9.094 -0.2339  0.2382 -0.1770
    2sA      GN  947   6.845   4.986   8.894 -0.4028 -0.1150 -0.3573
    2sA      GC  948   6.803   4.842   8.927 -0.0159 -0.4135  0.0470
    2sA      GO  949   6.850   4.701   8.746 -0.2355 -0.0211  0.3529
    3sE      GN  950   6.879   4.606   8.939 -0.3469  0.1604 -0.2989
    3sE      GC  951   6.934   4.486   8.897 -0.3915  0.2175  0.1524
    3sE     BCD  952   7.233   4.625   9.066 -0.1568  0.1582  0.1295
    3sE    BOE1  953   7.207   4.668   9.190  0.0586 -0.1421  0.2739
    3sE    BOE2  954   7.366   4.606   9.057 -0.2567  0.2165  0.1778
    3sE      GO  955   6.778   4.302   8.877  0.1397  0.3133  0.0429
    4sF      GN  956   6.855   4.387   8.685  0.0370 -0.0999  0.0825
    4sF      GC  957   6.761   4.321   8.598  0.2305  0.1800 -0.0973
    4sF     BCG  958   6.549   4.458   8.583  0.0393  0.0676  0.4361
    4sF    BCE1  959   6.539   4.682   8.628  0.2959  0.2346  0.1244
    4sF    BCE2  960   6.484   4.625   8.411  0.2194  0.1399  0.1192
    4sF      GO  961   6.871   4.280   8.394 -0.0302  0.6404  0.0921
    5sR      GN  962   6.755   4.104   8.506  0.0748  0.2989  0.0069
    5sR      GC  963   6.795   3.989   8.423  0.1145  0.3142  0.1423
    5sR     BCG  964   6.962   3.863   8.560  0.1220  0.0633 -0.1761
    5sR     BCZ  965   6.872   3.557   8.706  0.0006 -0.1461 -0.1651
    5sR    BNN1  966   6.834   3.670   8.774  0.0102 -0.4049 -0.0748
    5sR    BNN2  967   6.969   3.481   8.726 -0.1191 -0.2134  0.1247
    5sR      GO  968   6.618   3.958   8.272 -0.0618 -0.1793 -0.0843
    6sHe     GN  969   6.827   3.969   8.191  0.1928 -0.2439  0.0913
    6sHe     GC  970   6.798   3.953   8.046  0.4024 -0.0399 -0.2747
    6sHe    BCG  971   6.755   4.174   7.919 -0.0229  0.1733  0.0733
    6sHe    BNE  972   6.851   4.368   7.959 -0.0974  0.1846  0.1346
    6sHe    BND  973   6.734   4.262   7.807 -0.1355 -0.1087  0.7319
    6sHe     GO  974   6.951   3.814   7.952 -0.0666  0.1464  0.0353
    7sD      GN  975   6.751   3.788   7.926 -0.0797  0.1854 -0.0364
    7sD      GC  976   6.757   3.682   7.834 -0.0409  0.1704  0.1658
    7sD     BCG  977   6.553   3.599   7.751  0.2311  0.0112  0.1518
    7sD    BOE1  978   6.474   3.529   7.808  0.0778 -0.4103 -0.0332
    7sD    BOE2  979   6.501   3.684   7.649  0.0419  0.3886 -0.2359
    7sD      GO  980   6.936   3.715   7.683  0.0934 -0.0493 -0.1213
    8sSp     GN  981   6.927   3.533   7.805 -0.0022  0.3305 -0.0272
    8sSp     GC  982   7.051   3.472   7.750 -0.3370  0.0978 -0.3164
    8sSp    BCB  983   7.072   3.326   7.808  0.3670 -0.2880 -0.0704
    8sSp     PX  984   7.277   3.191   7.788 -0.1264 -0.1556  0.2112
    8sSp     GO  985   7.056   3.500   7.506 -0.1950 -0.3594 -0.0351
    9sG      GN  986   7.245   3.589   7.600 -0.1485 -0.3836 -0.4295
    9sG      GC  987   7.306   3.653   7.492  0.2746 -0.1484  0.2014
    9sG      GO  988   7.170   3.840   7.411 -0.0309  0.0765 -0.1563
   10sY      GN  989   7.388   3.872   7.467 -0.1044  0.1925 -0.2095
   10sY      GC  990   7.411   4.000   7.432  0.3890 -0.0277  0.5422
   10sY     BCG  991   7.515   4.198   7.560 -0.3347  0.4754  0.5224
   10sY    BCE2  992   7.552   4.387   7.701 -0.2451 -0.0882  0.0324
   10sY    BCE1  993   7.671   4.172   7.753  0.1232  0.1420 -0.0984
   10sY      GO  994   7.491   4.010   7.199 -0.3100  0.1541 -0.0683
   11sE      GN  995   7.307   4.090   7.224  0.2699 -0.1696 -0.1684
   11sE      GC  996   7.293   4.134   7.087  0.0088  0.0197 -0.0442
   11sE     BCD  997   7.008   3.950   6.948  0.2427  0.2053  0.2088
   11sE    BOE1  998   6.925   3.934   7.019  0.0303 -0.2390 -0.1072
   11sE    BOE2  999   6.996   3.901   6.831 -0.0217  0.1116  0.7529
   11sE      GO 1000   7.361   4.356   7.074  0.1865 -0.0252 -0.1848
   12sV      GN 1001   7.453   4.219   6.937 -0.2809 -0.1514  0.1893
   12sV      GC 1002   7.543   4.312   6.843  0.0618 -0.2600 -0.0371
   12sV     BCB 1003   7.576   4.213   6.745  0.1981  0.3049  0.2576
   12sV      GO 1004   7.426   4.514   6.794  0.1700 -0.1503  0.2104
   13sHe     GN 1005   7.590   4.540   6.936  0.3646  0.3303 -0.1783
   13sHe     GC 1006   7.556   4.674   6.964 -0.0671  0.0160  0.1309
   13sHe    BCG 1007   7.545   4.845   6.757 -0.0910 -0.1172  0.1579
   13sHe    BNE 1008   7.413   4.854   6.560 -0.1974  0.4973  0.3257
   13sHe    BND 1009   7.541   4.972   6.678 -0.3961  0.1477  0.2931
   13sHe     GO 1010   7.379   4.714   7.085  0.2538 -0.1293  0.0357
   14sHe     GN 1011   7.556   4.828   7.131 -0.1654  0.2282 -0.0100
   14sHe     GC 1012   7.492   4.897   7.241 -0.2057 -0.0639 -0.0687
   14sHe    BCG 1013   7.483   4.792   7.453 -0.0187  0.5611 -0.2542
   14sHe    BNE 1014   7.303   4.779   7.594 -0.0802 -0.1317 -0.3958
   14sHe    BND 1015   7.501   4.717   7.576 -0.0749 -0.1660 -0.0646
   14sHe     GO 1016   7.546   5.137   7.263 -0.1866  0.4140 -0.0107
   15sQ      GN 1017   7.345   5.073   7.196 -0.0367  0.2069  0.0017
   15sQ      GC 1018   7.284   5.196   7.163 -0.0925 -0.1740 -0.2362
   15sQ     BCD 1019   7.194   5.099   6.860 -0.0006 -0.4392 -0.0990
   15sQ     BOD 1020   7.192   5.203   6.785  0.2003  0.3126 -0.1292
   15sQ     BND 1021   7.181   4.989   6.795  0.1954  0.1592 -0.0497
   15sQ      GO 1022   7.156   5.274   7.354 -0.5419 -0.1156  0.0994
   16sK      GN 1023   7.276   5.429   7.240  0.0971  0.3459 -0.2229
   16sK      GC 1024   7.252   5.536   7.335 -0.2661  0.1292 -0.2404
   16sK     BCG 1025   7.416   5.694   7.271  0.3540 -0.0813 -0.1725
   16sK     BCE 1026   7.273   5.835   7.121  0.0007 -0.1469 -0.1247
   16sK      GO 1027   7.035   5.562   7.454 -0.1099 -0.4672  0.6415
   17sL      GN 1028   7.204   5.479   7.579 -0.1134 -0.2200 -0.0808
   17sL      GC 1029   7.108   5.444   7.692 -0.4333  0.6611 -0.4529
   17sL     BCG 1030   7.128   5.196   7.740 -0.0146  0.1567  0.2453
   17sL      GO 1031   7.111   5.595   7.875  0.6944  0.0616  0.0047
   18sV      GN 1032   6.910   5.535   7.782 -0.3276 -0.0365 -0.3720
   18sV      GC 1033   6.836   5.611   7.878  0.2397 -0.1647 -0.0640
   18sV     BCB 1034   6.691   5.674   7.859  0.0717  0.4056 -0.0485
   18sV      GO 1035   6.917   5.616   8.120 -0.1485  0.3860  0.1176
   19sF      GN 1036   6.898   5.403   8.044  0.2853  0.1569  0.0483
   19sF      GC 1037   6.944   5.330   8.178 -0.2902  0.2300 -0.0353
   19sF     BCG 1038   6.761   5.262   8.335  0.0625 -0.1229  0.0565
   19sF    BCE1 1039   6.710   5.203   8.562 -0.1466  0.3714 -0.0470
   19sF    BCE2 1040   6.572   5.347   8.459  0.1223  0.2493 -0.2084
   19sF      GO 1041   7.084   5.132   8.123  0.3644  0.1223  0.3026
   20sF      GN 1042   7.184   5.325   8.171 -0.3144  0.2557  0.0143
   20sF      GC 1043   7.323   5.286   8.142  0.0852  0.1529 -0.2479
   20sF     BCG 1044   7.489   5.430   8.273 -0.1321  0.1639  0.6448
   20sF    BCE1 1045   7.663   5.481   8.436  0.2866 -0.0605 -0.1059
   20sF    BCE2 1046   7.732   5.359   8.239 -0.0256 -0.1034  0.0800
   20sF      GO 1047   7.364   5.045   8.211 -0.3894 -0.0719 -0.0366
   21sA      GN 1048   7.418   5.132   8.036 -0.2882  0.2496  0.3761
   21sA      GC 1049   7.476   5.012   7.979 -0.1291 -0.1692 -0.1905
   21sA      GO 1050   7.718   5.026   8.010  0.0722  0.1750  0.0903
   22sE      GN 1051   7.629   4.835   8.073  0.2001  0.0227 -0.4828
   22sE      GC 1052   7.748   4.757   8.100 -0.2989 -0.1180 -0.4218
   22sE     BCD 1053   7.783   4.797   8.464 -0.0272 -0.2598  0.4263
   22sE    BOE1 1054   7.795   4.906   8.516 -0.1508 -0.2369 -0.0663
   22sE    BOE2 1055   7.742   4.701   8.540  0.0150  0.1627 -0.2959
   22sE      GO 1056   7.795   4.620   7.917 -0.2886  0.5766  0.1129
   23sD      GN 1057   7.972   4.705   8.035 -0.0357  0.1050  0.0348
   23sD      GC 1058   8.080   4.642   7.945  0.1397 -0.0674 -0.0526
   23sD     BCG 1059   8.315   4.729   7.965  0.2495 -0.3487 -0.0389
   23sD    BOE1 1060   8.301   4.809   7.854 -0.0483 -0.0021 -0.3699
   23sD    BOE2 1061   8.411   4.802   8.042  0.1532  0.0691  0.3152
   23sD      GO 1062   8.044   4.425   7.865 -0.0856  0.2468 -0.2577
   24sV      GN 1063   8.059   4.450   8.096  0.1789  0.1712  0.0504
   24sV      GC 1064   8.042   4.307   8.132  0.2154 -0.0859  0.1248
   24sV     BCB 1065   8.205   4.253   8.129  0.1889  0.1494 -0.0614
   24sV      GO 1066   7.893   4.279   8.314  0.1469  0.1705  0.0607
   25sG      GN 1067   7.820   4.184   8.115  0.0885  0.0491 -0.2440
   25sG      GC 1068   7.706   4.121   8.182 -0.3430 -0.2836  0.1798
   25sG      GO 1069   7.561   4.300   8.242  0.1959  0.0092 -0.1260
   26sS      GN 1070   7.485   4.123   8.129 -0.0415 -0.2433 -0.2730
   26sS      GC 1071   7.349   4.165   8.111  0.1930 -0.1983 -0.2245
   26sS     BOG 1072   7.294   4.210   7.886  0.0999 -0.2365 -0.1391
   26sS     BPG 1073   7.210   4.191   7.848 -0.0234 -0.1068  0.2313
   26sS      GO 1074   7.205   4.082   8.288  0.1934 -0.1515  0.2677
   27sN      GN 1075   7.242   4.293   8.298 -0.0631  0.0327 -0.2226
   27sN      GC 1076   7.157   4.316   8.426 -0.0137  0.0305  0.2701
   27sN     BCG 1077   7.264   4.212   8.629  0.2284  0.1532  0.2170
   27sN     BND 1078   7.184   4.139   8.740  0.0127 -0.3747 -0.2477
   27sN     BOD 1079   7.303   4.314   8.680 -0.2753 -0.3114 -0.0502
   27sN      GO 1080   7.038   4.535   8.428  0.0228  0.0339 -0.3333
   28sK      GN 1081   7.255   4.543   8.374  0.1106 -0.2565  0.0892
   28sK      GC 1082   7.266   4.680   8.346  0.2277  0.1071 -0.1693
   28sK     BCG 1083   7.277   4.783   8.570 -0.2943  0.1495 -0.2054
   28sK     BCE 1084   7.410   4.913   8.737 -0.1815 -0.1671 -0.2024
   28sK      GO 1085   7.379   4.696   8.131 -0.2225 -0.0773  0.0051
   29sG      GN 1086   7.184   4.809   8.162  0.1198 -0.0878  0.1989
   29sG      GC 1087   7.173   4.849   8.023  0.1973 -0.3156  0.0226
   29sG      GO 1088   7.138   4.634   7.886 -0.1302  0.0613 -0.4040
   30sA      GN 1089   7.000   4.786   7.896 -0.2263 -0.2167  0.2258
   30sA      GC 1090   6.897   4.726   7.811 -0.0534  0.0283 -0.2947
   30sA      GO 1091   6.907   4.826   7.596 -0.0671 -0.0611  0.0358
   31sI      GN 1092   6.894   4.613   7.618 -0.1103  0.1114 -0.1731
   31sI      GC 1093   6.903   4.576   7.471  0.2088  0.1383 -0.0875
   31sI     BCG 1094   7.064   4.368   7.469  0.0466  0.0183  0.0007
   31sI      GO 1095   6.678   4.547   7.373 -0.2445  0.0548 -0.0840
   32sI      GN 1096   6.813   4.696   7.298  0.3167  0.0892  0.3771
   32sI      GC 1097   6.728   4.703   7.188  0.1250 -0.4333  0.1727
   32sI     BCG 1098   6.905   4.842   7.064  0.2907  0.0254 -0.3954
   32sI      GO 1099   6.616   4.495   7.150 -0.1182 -0.3508  0.2068
   33sG      GN 1100   6.475   4.658   7.207 -0.2136  0.6236 -0.1142
   33sG      GC 1101   6.358   4.557   7.254  0.2973  0.0724 -0.0971
   33sG      GO 1102   6.322   4.365   7.125  0.1119  0.0643 -0.0769
   34sL      GN 1103   6.413   4.328   7.337 -0.0777 -0.0953  0.1833
   34sL      GC 1104   6.418   4.189   7.337  0.0748  0.0228  0.1979
   34sL     BCG 1105   6.654   4.104   7.369  0.5438  0.0003 -0.3113
   34sL      GO 1106   6.226   4.083   7.465  0.0513 -0.2972  0.2612
   35sM      GN 1107   6.320   4.252   7.565 -0.2743  0.2682 -0.1635
   35sM      GC 1108   6.220   4.260   7.682 -0.2714  0.2413  0.0155
   35sM     BSD 1109   6.326   4.030   7.970  0.2359 -0.2136  0.3042
   35sM      GO 1110   6.179   4.486   7.743  0.3720  0.0651  0.3439
   36sV      GN 1111   6.388   4.422   7.792  0.8122  0.2141 -0.4875
   36sV      GC 1112   6.411   4.545   7.871 -0.0361  0.3340  0.1376
   36sV     BCB 1113   6.449   4.486   8.022 -0.0455 -0.5527 -0.0191
   36sV      GO 1114   6.556   4.691   7.755  0.3383 -0.1341 -0.1994
   37sG      GN 1115   6.335   4.752   7.772  0.0798  0.0487 -0.0699
   37sG      GC 1116   6.342   4.864   7.687 -0.1266  0.0431  0.0826
   37sG      GO 1117   6.382   4.797   7.467 -0.3113  0.3158 -0.2858
   38sG      GN 1118   6.242   4.972   7.498 -0.0840 -0.1351  0.0848
   38sG      GC 1119   6.221   4.995   7.354  0.1225 -0.2656  0.1698
   38sG      GO 1120   6.202   5.231   7.314  0.0581  0.0765 -0.0523
   39sV      GN 1121   6.378   5.114   7.214  0.1367 -0.0684  0.0534
   39sV      GC 1122   6.447   5.243   7.140  0.3366 -0.0115 -0.1362
   39sV     BCB 1123   6.590   5.217   7.174 -0.2642  0.3236  0.0125
   39sV      GO 1124   6.366   5.264   6.899 -0.1734  0.4699  0.0020
   40sV      GN 1125   6.323   5.438   7.020 -0.0110 -0.2330  0.0933
   40sV      GC 1126   6.255   5.507   6.915 -0.1811 -0.2349  0.0639
   40sV     BCB 1127   6.130   5.568   6.990  0.0628 -0.1005 -0.1061
   40sV      GO 1128   6.403   5.672   6.793  0.0117  0.4384 -0.4178
    1sD      GN 1129   2.748   6.292   7.634  0.4128  0.1752 -0.0774
    1sD      GC 1130   2.691   6.425   7.549 -0.2793 -0.2741 -0.0303
    1sD     BCG 1131   2.540   6.594   7.652 -0.2141 -0.0888 -0.0646
    1sD    BOE1 1132   2.587   6.656   7.757  0.1366 -0.0655  0.2272
    1sD    BOE2 1133   2.413   6.560   7.648 -0.2410  0.0791  0.0006
    1sD      GO 1134   2.880   6.518   7.427 -0.1884 -0.1748  0.3591
    2sA      GN 1135   2.689   6.513   7.309  0.4820  0.0073 -0.1083
    2sA      GC 1136   2.734   6.567   7.180 -0.2607 -0.0163  0.3484
    2sA      GO 1137   2.585   6.737   7.096  0.3591 -0.2551  0.0352
    3sE      GN 1138   2.792   6.769   7.112 -0.0927 -0.3245 -0.1351
    3sE      GC 1139   2.781   6.919   7.084  0.3000  0.0206  0.1526
    3sE     BCD 1140   3.076   7.090   7.191 -0.3404  0.1084 -0.1348
    3sE    BOE1 1141   3.064   7.193   7.250 -0.0442 -0.0324 -0.1210
    3sE    BOE2 1142   3.184   7.043   7.132  0.0797  0.1085 -0.3661
    3sE      GO 1143   2.597   6.968   6.904 -0.2254 -0.2010 -0.1902
    4sF      GN 1144   2.535   7.036   7.088 -0.5469  0.0551 -0.0339
    4sF      GC 1145   2.427   7.097   7.042  0.0423 -0.3461  0.0103
    4sF     BCG 1146   2.314   7.259   7.198 -0.2532 -0.1293 -0.1021
    4sF    BCE1 1147   2.102   7.330   7.290 -0.3573 -0.2912  0.2030
    4sF    BCE2 1148   2.273   7.501   7.208  0.0830 -0.0149  0.4460
    4sF      GO 1149   2.465   7.223   6.833 -0.1873 -0.2750  0.0340
    5sR      GN 1150   2.304   7.059   6.816  0.2015 -0.2220 -0.3393
    5sR      GC 1151   2.276   7.088   6.670  0.0317  0.3201 -0.1144
    5sR     BCG 1152   2.106   6.909   6.581 -0.3121  0.3307 -0.0231
    5sR     BCZ 1153   2.283   6.610   6.631 -0.0515  0.5220  0.2394
    5sR    BNN1 1154   2.406   6.561   6.682  0.1702  0.1829  0.3225
    5sR    BNN2 1155   2.255   6.545   6.512 -0.1001 -0.2561  0.0508
    5sR      GO 1156   2.293   7.319   6.649 -0.2280  0.0473  0.4406
    6sHe     GN 1157   2.422   7.196   6.506 -0.2423 -0.2202 -0.1651
    6sHe     GC 1158   2.507   7.309   6.452  0.1669 -0.3743  0.1698
    6sHe    BCG 1159   2.748   7.286   6.405 -0.1378 -0.0349  0.0628
    6sHe    BNE 1160   2.915   7.374   6.262 -0.1040  0.1908 -0.0640
    6sHe    BND 1161   2.865   7.306   6.454 -0.1280 -0.0538 -0.0361
    6sHe     GO 1162   2.406   7.414   6.262  0.1701 -0.1955 -0.0812
    7sD      GN 1163   2.530   7.544   6.397  0.0419 -0.2137  0.1096
    7sD      GC 1164   2.497   7.668   6.319 -0.2813 -0.3465 -0.1804
    7sD     BCG 1165   2.384   7.838   6.446  0.2535  0.2625 -0.0046
    7sD    BOE1 1166   2.271   7.891   6.419 -0.2183  0.2172  0.2936
    7sD    BOE2 1167   2.477   7.933   6.464 -0.1115 -0.0002 -0.1248
    7sD      GO 1168   2.700   7.708   6.183  0.4359  0.2140  0.0009
    8sSp     GN 1169   2.509   7.631   6.074  0.0581 -0.2784 -0.3746
    8sSp     GC 1170   2.557   7.631   5.929 -0.0292  0.3519  0.0885
    8sSp    BCB 1171   2.415   7.613   5.837  0.3293  0.2651 -0.2660
    8sSp     PX 1172   2.384   7.407   5.704 -0.1252  0.2030  0.4630
    8sSp     GO 1173   2.677   7.811   5.882 -0.5787 -0.1861  0.0510
    9sG      GN 1174   2.774   7.605   5.895 -0.3137  0.5434  0.0640
    9sG      GC 1175   2.908   7.641   5.869 -0.1970 -0.0022 -0.1495
    9sG      GO 1176   3.019   7.487   5.709  0.1760  0.2179  0.0581
   10sY      GN 1177   3.059   7.712   5.698 -0.0611 -0.2653 -0.1515
   10sY      GC 1178   3.139   7.714   5.575 -0.3799  0.0454 -0.0799
   10sY     BCG 1179   3.300   7.902   5.549 -0.2145  0.0083 -0.1146
   10sY    BCE2 1180   3.392   8.128   5.489  0.1926  0.5511  0.4248
   10sY    BCE1 1181   3.502   7.989   5.653  0.1625 -0.1117  0.1557
   10sY      GO 1182   3.288   7.534   5.551  0.1416  0.2885  0.3076
   11sE      GN 1183   3.127   7.560   5.411 -0.0627 -0.2236  0.2679
   11sE      GC 1184   3.160   7.447   5.324  0.0549 -0.1003  0.2699
   11sE     BCD 1185   2.804   7.423   5.182  0.3313  0.1023 -0.1566
   11sE    BOE1 1186   2.776   7.537   5.129 -0.1171  0.1800  0.0486
   11sE    BOE2 1187   2.865   7.353   5.103 -0.0912  0.5245 -0.0668
   11sE      GO 1188   3.399   7.435   5.283  0.1647 -0.0894 -0.1551
   12sV      GN 1189   3.274   7.258   5.357 -0.5297 -0.0101  0.2648
   12sV      GC 1190   3.401   7.162   5.345  0.2333  0.2115 -0.0668
   12sV     BCB 1191   3.337   7.021   5.398 -0.4716  0.3032 -0.1584
   12sV      GO 1192   3.540   7.199   5.143  0.1365 -0.0407  0.3330
   13sHe     GN 1193   3.642   7.241   5.324  0.0058 -0.2992  0.0588
   13sHe     GC 1194   3.776   7.247   5.275  0.4144 -0.4559 -0.1528
   13sHe    BCG 1195   3.889   7.055   5.228  0.1512 -0.2459 -0.5756
   13sHe    BNE 1196   4.043   6.933   5.344  0.0187 -0.5076  0.2175
   13sHe    BND 1197   3.974   6.993   5.161 -0.5154  0.1277  0.3504
   13sHe     GO 1198   3.823   7.439   5.145 -0.0043 -0.2620  0.1710
   14sHe     GN 1199   3.847   7.455   5.370  0.0804  0.1406  0.1899
   14sHe     GC 1200   3.901   7.598   5.364  0.1243 -0.0920  0.1775
   14sHe    BCG 1201   3.757   7.803   5.344  0.3257  0.5020  0.0420
   14sHe    BNE 1202   3.552   7.799   5.263 -0.1224 -0.1973 -0.1663
   14sHe    BND 1203   3.701   7.918   5.363  0.1070  0.1490  0.0846
   14sHe     GO 1204   4.082   7.633   5.530 -0.2752  0.1117 -0.2358
   15sQ      GN 1205   4.104   7.730   5.342 -0.0635  0.0470  0.0360
   15sQ      GC 1206   4.253   7.771   5.374  0.0622 -1.0696  0.3388
   15sQ     BCD 1207   4.314   7.920   5.068  0.3455  0.0911  0.3353
   15sQ     BOD 1208   4.203   7.909   4.983 -0.2758 -0.2353  0.0559
   15sQ     BND 1209   4.361   8.036   5.098 -0.0151 -0.0528  0.0983
   15sQ      GO 1210   4.276   7.848   5.596  0.2203  0.0740 -0.1408
   16sK      GN 1211   4.439   7.727   5.495  0.1745 -0.1670  0.1582
   16sK      GC 1212   4.519   7.723   5.600 -0.3537 -0.4138 -0.1986
   16sK     BCG 1213   4.436   7.536   5.716  0.0318  0.1683 -0.0435
   16sK     BCE 1214   4.566   7.496   5.908 -0.3488  0.3387 -0.0029
   16sK      GO 1215   4.757   7.749   5.529  0.3519 -0.2610  0.2524
   17sL      GN 1216   4.691   7.915   5.674 -0.3704  0.2936 -0.0443
   17sL      GC 1217   4.821   7.967   5.670  0.3246  0.0052 -0.3920
   17sL     BCG 1218   4.821   8.185   5.793 -0.2005  0.0398  0.0557
   17sL      GO 1219   4.995   7.801   5.662  0.0482  0.3767 -0.2432
   18sV      GN 1220   4.997   7.975   5.510  0.1901  0.0485  0.2857
   18sV      GC 1221   5.109   7.920   5.433 -0.0957  0.4190 -0.0024
   18sV     BCB 1222   5.158   7.945   5.293 -0.4517 -0.3694  0.0883
   18sV      GO 1223   5.285   7.816   5.581  0.1077 -0.3619 -0.0261
   19sF      GN 1224   5.219   8.017   5.659 -0.0184  0.1725 -0.0025
   19sF      GC 1225   5.312   8.020   5.764  0.0924  0.0033  0.4854
   19sF     BCG 1226   5.514   8.144   5.687 -0.3211 -0.0242 -0.0580
   19sF    BCE1 1227   5.566   8.378   5.734 -0.2172 -0.2000 -0.2257
   19sF    BCE2 1228   5.747   8.205   5.737  0.3565 -0.1704 -0.0785
   19sF      GO 1229   5.212   8.091   5.965 -0.4254  0.5912  0.1048
   20sF      GN 1230   5.321   7.865   5.948  0.4070 -0.6217  0.0306
   20sF      GC 1231   5.288   7.833   6.089  0.0683  0.4321  0.1757
   20sF     BCG 1232   5.061   7.767   6.185  0.0420  0.0938  0.2490
   20sF    BCE1 1233   4.837   7.876   6.204 -0.3141  0.0679  0.1100
   20sF    BCE2 1234   4.892   7.713   6.035  0.0482 -0.1499  0.3399
   20sF      GO 1235   5.446   7.687   6.196 -0.0452  0.1658  0.0441
   21sA      GN 1236   5.375   7.888   6.316 -0.2200  0.1328  0.1299
   21sA      GC 1237   5.455   7.876   6.438 -0.5360 -0.1386 -0.0846
   21sA      GO 1238   5.335   7.763   6.623  0.2440 -0.0555  0.4205
   22sE      GN 1239   5.250   7.959   6.556  0.0726 -0.2790 -0.0470
   22sE      GC 1240   5.132   7.947   6.639 -0.0815  0.4600 -0.1263
   22sE     BCD 1241   5.293   7.963   6.969  0.0016 -0.2497  0.2754
   22sE    BOE1 1242   5.219   7.895   7.018 -0.0643  0.0536  0.0440
   22sE    BOE2 1243   5.375   8.056   7.000  0.0418  0.2938 -0.1395
   22sE      GO 1244   4.955   8.031   6.531  0.1440 -0.0394 -0.0353
   23sD      GN 1245   4.957   7.818   6.616 -0.0854 -0.2665 -0.1941
   23sD      GC 1246   4.825   7.765   6.553 -0.3744  0.1364 -0.3401
   23sD     BCG 1247   4.786   7.538   6.598  0.1550 -0.1112  0.1195
   23sD    BOE1 1248   4.727   7.477   6.685  0.2366  0.2369  0.0631
   23sD    BOE2 1249   4.811   7.513   6.473  0.1951 -0.1770 -0.1275
   23sD      GO 1250   4.653   7.935   6.552  0.0474  0.1338  0.0421
   24sV      GN 1251   4.748   7.896   6.764 -0.1458 -0.1487  0.0103
   24sV      GC 1252   4.660   7.974   6.839 -0.1885 -0.0342 -0.1237
   24sV     BCB 1253   4.622   7.883   6.980  0.0046  0.0007  0.1462
   24sV      GO 1254   4.752   8.196   6.886  0.0414  0.1184  0.0004
   25sG      GN 1255   4.613   8.190   6.704  0.1565  0.0190  0.1228
   25sG      GC 1256   4.599   8.330   6.695 -0.2014 -0.2046  0.1450
   25sG      GO 1257   4.814   8.418   6.614  0.0292  0.1075  0.2340
   26sS      GN 1258   4.627   8.435   6.476  0.3532  0.1599 -0.0905
   26sS      GC 1259   4.696   8.489   6.357 -0.0321 -0.1292 -0.0971
   26sS     BOG 1260   4.665   8.299   6.210  0.1091  0.2404  0.2003
   26sS     BPG 1261   4.582   8.265   6.147 -0.0905  0.3777 -0.1458
   26sS      GO 1262   4.672   8.722   6.363  0.0049 -0.4014 -0.0261
   27sN      GN 1263   4.884   8.631   6.397  0.0631 -0.2246 -0.1397
   27sN      GC 1264   4.960   8.770   6.404 -0.2075  0.0648 -0.0745
   27sN     BCG 1265   5.066   8.805   6.608 -0.1452  0.0144  0.1919
   27sN     BND 1266   5.087   8.939   6.616 -0.0624 -0.0879 -0.1313
   27sN     BOD 1267   5.106   8.722   6.681 -0.0282  0.0765  0.3730
   27sN      GO 1268   5.050   8.829   6.195  0.1776  0.0199  0.0081
   28sK      GN 1269   5.137   8.633   6.268  0.0988 -0.2347  0.3647
   28sK      GC 1270   5.219   8.602   6.149  0.0207 -0.6803 -0.1444
   28sK     BCG 1271   5.462   8.580   6.195 -0.0431  0.2379 -0.3736
   28sK     BCE 1272   5.698   8.510   6.161 -0.1211  0.0118  0.0979
   28sK      GO 1273   5.094   8.471   5.988  0.0035  0.1600  0.0632
   29sG      GN 1274   5.165   8.657   5.912 -0.0039 -0.1275  0.0095
   29sG      GC 1275   5.115   8.655   5.781  0.1195  0.1015  0.4315
   29sG      GO 1276   5.285   8.572   5.632  0.1246  0.2550  0.5275
   30sA      GN 1277   5.087   8.479   5.656  0.2264 -0.2947 -0.1174
   30sA      GC 1278   5.080   8.388   5.543 -0.2493  0.0575 -0.1690
   30sA      GO 1279   4.866   8.377   5.444 -0.4045 -0.2313  0.0932
   31sI      GN 1280   5.057   8.445   5.329  0.2443  0.4438  0.3172
   31sI      GC 1281   4.993   8.478   5.213 -0.2486  0.1067  0.2997
   31sI     BCG 1282   4.998   8.745   5.188 -0.2715 -0.0467 -0.2330
   31sI      GO 1283   5.024   8.288   5.073  0.0328 -0.1466 -0.1061
   32sI      GN 1284   4.814   8.355   5.114 -0.2480 -0.0209  0.1876
   32sI      GC 1285   4.757   8.249   5.041  0.3662 -0.3000 -0.1207
   32sI     BCG 1286   4.750   8.029   5.167 -0.1390  0.4232  0.0277
   32sI      GO 1287   4.533   8.328   4.942 -0.6664 -0.1509  0.1370
   33sG      GN 1288   4.707   8.244   4.809  0.3075  0.4562  0.0268
   33sG      GC 1289   4.646   8.253   4.688  0.3938 -0.1648  0.2249
   33sG      GO 1290   4.410   8.207   4.676 -0.2741  0.2327  0.2851
   34sL      GN 1291   4.488   8.421   4.636 -0.6611  0.3864 -0.0961
   34sL      GC 1292   4.347   8.478   4.609  0.4804  0.0864  0.4021
   34sL     BCG 1293   4.392   8.717   4.587  0.0702  0.4477 -0.0631
   34sL      GO 1294   4.198   8.323   4.469 -0.1068 -0.0413  0.2586
   35sM      GN 1295   4.411   8.334   4.394  0.4853 -0.1778  0.1456
   35sM      GC 1296   4.382   8.248   4.279  0.0878 -0.1903 -0.2438
   35sM     BSD 1297   4.562   8.435   4.021 -0.1571 -0.0939  0.1328
   35sM      GO 1298   4.443   8.030   4.319  0.1201  0.2504  0.0038
   36sV      GN 1299   4.628   8.171   4.304  0.1236  0.0375 -0.1787
   36sV      GC 1300   4.726   8.070   4.319 -0.4659  0.2161  0.0240
   36sV     BCB 1301   4.818   8.098   4.178  0.2621 -0.0665  0.1538
   36sV      GO 1302   4.811   8.042   4.547 -0.2134  0.2571  0.1803
   37sG      GN 1303   4.752   7.844   4.464 -0.1884  0.0814 -0.1342
   37sG      GC 1304   4.785   7.766   4.579 -0.4415 -0.0552  0.0031
   37sG      GO 1305   4.635   7.821   4.752 -0.0318 -0.2068 -0.7273
   38sG      GN 1306   4.679   7.606   4.733  0.0902  0.0003 -0.0234
   38sG      GC 1307   4.613   7.566   4.840  0.0178 -0.1480 -0.1333
   38sG      GO 1308   4.729   7.366   4.916  0.1458 -0.4867  0.0144
   39sV      GN 1309   4.707   7.555   5.039  0.5110 -0.2118 -0.1380
   39sV      GC 1310   4.776   7.519   5.166  0.3939 -0.4095  0.4629
   39sV     BCB 1311   4.920   7.575   5.176 -0.0140 -0.1049 -0.1952
   39sV      GO 1312   4.655   7.597   5.352 -0.1637 -0.0309 -0.3048
   40sV      GN 1313   4.623   7.378   5.299  0.0075  0.0775 -0.6475
   40sV      GC 1314   4.552   7.333   5.416  0.0985  0.0116  0.1069
   40sV     BCB 1315   4.413   7.263   5.369 -0.4779 -0.0177 -0.2591
   40sV      GO 1316   4.684   7.230   5.582 -0.2690  0.0677 -0.3083
    1sD      GN 1317   4.387   8.340   5.711  0.1129  0.2807  0.1424
    1sD      GC 1318   4.250   8.308   5.646  0.0234 -0.3641  0.1492
    1sD     BCG 1319   4.226   8.422   5.421 -0.1408  0.0959 -0.3573
    1sD    BOE1 1320   4.156   8.525   5.435 -0.0609 -0.1926  0.0988
    1sD    BOE2 1321   4.196   8.345   5.330 -0.2380  0.0158 -0.1009
    1sD      GO 1322   4.177   8.086   5.697  0.1442 -0.3001  0.2249
    2sA      GN 1323   3.991   8.238   5.699  0.0905 -0.1451  0.1041
    2sA      GC 1324   3.894   8.145   5.754  0.1870  0.0459 -0.2044
    2sA      GO 1325   3.939   7.924   5.677  0.0139 -0.0914  0.0814
    3sE      GN 1326   3.972   7.962   5.895  0.0532 -0.2448 -0.3103
    3sE      GC 1327   3.993   7.816   5.942 -0.0521 -0.5588 -0.1446
    3sE     BCD 1328   4.335   7.847   6.050 -0.0788 -0.2185 -0.2057
    3sE    BOE1 1329   4.410   7.932   5.986 -0.1623 -0.0093 -0.0821
    3sE    BOE2 1330   4.399   7.788   6.136 -0.1357  0.3595 -0.1830
    3sE      GO 1331   3.786   7.726   6.044  0.0120 -0.1831  0.3982
    4sF      GN 1332   3.891   7.609   5.887  0.0443  0.1000  0.3641
    4sF      GC 1333   3.806   7.490   5.884  0.2851  0.0095  0.1295
    4sF     BCG 1334   3.903   7.283   5.776 -0.0499 -0.0773  0.2501
    4sF    BCE1 1335   4.068   7.236   5.594 -0.1069 -0.0120 -0.3397
    4sF    BCE2 1336   4.087   7.108   5.793 -0.0469  0.2099  0.3043
    4sF      GO 1337   3.734   7.419   6.093  0.2860  0.1509  0.0351
    5sR      GN 1338   3.575   7.475   5.937 -0.3353 -0.1091 -0.1159
    5sR      GC 1339   3.465   7.437   6.020  0.0260  0.1684 -0.0762
    5sR     BCG 1340   3.332   7.613   6.083  0.3806 -0.0922 -0.0388
    5sR     BCZ 1341   3.451   7.834   6.334 -0.0261  0.0973 -0.0733
    5sR    BNN1 1342   3.531   7.735   6.374  0.1366 -0.2304 -0.1369
    5sR    BNN2 1343   3.342   7.830   6.280  0.4261 -0.2781  0.1476
    5sR      GO 1344   3.387   7.211   5.953  0.1267  0.1281 -0.1502
    6sHe     GN 1345   3.462   7.226   6.180  0.0679 -0.0414  0.0084
    6sHe     GC 1346   3.427   7.091   6.215  0.1978  0.1164  0.3586
    6sHe    BCG 1347   3.580   6.987   6.342 -0.2286  0.1087 -0.0510
    6sHe    BNE 1348   3.757   7.017   6.459 -0.3592  0.0352 -0.1661
    6sHe    BND 1349   3.639   6.859   6.379  0.1175 -0.2034  0.3407
    6sHe     GO 1350   3.207   7.087   6.303  0.0710 -0.1661  0.0014
    7sD      GN 1351   3.260   6.958   6.151 -0.1388  0.3885 -0.2917
    7sD      GC 1352   3.137   6.868   6.167 -0.0999 -0.2147 -0.1075
    7sD     BCG 1353   3.106   6.682   6.004  0.0068  0.4034  0.2962
    7sD    BOE1 1354   3.007   6.605   5.947 -0.1960  0.0405 -0.1589
    7sD    BOE2 1355   3.212   6.666   5.937  0.2355  0.0415  0.2515
    7sD      GO 1356   3.094   6.844   6.400  0.1238 -0.0283  0.0278
    8sSp     GN 1357   2.922   6.900   6.268 -0.1029  0.4654 -0.0566
    8sSp     GC 1358   2.811   6.885   6.364 -0.6673 -0.0468 -0.3164
    8sSp    BCB 1359   2.684   6.924   6.282 -0.0277  0.1508  0.1692
    8sSp     PX 1360   2.493   6.761   6.277 -0.1169 -0.2768 -0.0761
    8sSp     GO 1361   2.877   6.690   6.508 -0.0681 -0.0762  0.1492
    9sG      GN 1362   2.845   6.887   6.619 -0.2569 -0.0775 -0.1871
    9sG      GC 1363   2.892   6.830   6.747 -0.0549 -0.0802 -0.3896
    9sG      GO 1364   2.819   6.595   6.770 -0.3328 -0.1135  0.0777
   10sY      GN 1365   3.035   6.659   6.819 -0.0892  0.2902  0.0543
   10sY      GC 1366   3.087   6.530   6.845 -0.2814 -0.1520  0.1815
   10sY     BCG 1367   3.184   6.438   6.631 -0.0937 -0.0800  0.4375
   10sY    BCE2 1368   3.104   6.398   6.398  0.1389  0.2437 -0.0836
   10sY    BCE1 1369   3.328   6.524   6.427  0.1676  0.0118  0.1032
   10sY      GO 1370   3.229   6.549   7.016 -0.1572  0.0946  0.1725
   11sE      GN 1371   3.113   6.373   7.028  0.0325 -0.0617  0.1630
   11sE      GC 1372   3.191   6.331   7.155  0.1784 -0.1101 -0.0947
   11sE     BCD 1373   2.962   6.061   7.263 -0.1462  0.1108  0.1953
   11sE    BOE1 1374   2.839   6.057   7.234 -0.1261 -0.0397  0.5410
   11sE    BOE2 1375   2.984   6.120   7.362  0.0586 -0.3476  0.0871
   11sE      GO 1376   3.415   6.372   7.140 -0.1011 -0.2565 -0.1832
   12sV      GN 1377   3.319   6.418   7.347 -0.1747 -0.4409 -0.1075
   12sV      GC 1378   3.438   6.463   7.424  0.3174 -0.2041  0.4472
   12sV     BCB 1379   3.352   6.451   7.552  0.0065 -0.0510 -0.3052
   12sV      GO 1380   3.627   6.339   7.348  0.1609  0.0412 -0.2493
   13sHe     GN 1381   3.630   6.565   7.281  0.0096  0.1224 -0.1127
   13sHe     GC 1382   3.757   6.569   7.208  0.2295  0.2726  0.0665
   13sHe    BCG 1383   3.957   6.577   7.342 -0.0145 -0.1775  0.2492
   13sHe    BNE 1384   4.113   6.727   7.385  0.2196  0.0093  0.0637
   13sHe    BND 1385   4.078   6.527   7.408  0.2249 -0.0501  0.1046
   13sHe     GO 1386   3.731   6.437   7.005 -0.1974 -0.1765  0.2308
   14sHe     GN 1387   3.781   6.660   7.010  0.2735 -0.5428  0.1098
   14sHe     GC 1388   3.785   6.678   6.870  0.0413 -0.1367 -0.0985
   14sHe    BCG 1389   3.557   6.698   6.785 -0.3414  0.1373  0.1777
   14sHe    BNE 1390   3.460   6.897   6.735  0.2371  0.0244 -0.1749
   14sHe    BND 1391   3.481   6.695   6.683 -0.1059 -0.0065  0.2387
   14sHe     GO 1392   3.967   6.846   6.838 -0.4296  0.1297  0.4654
   15sQ      GN 1393   4.017   6.634   6.761  0.3062 -0.1133  0.0147
   15sQ      GC 1394   4.142   6.651   6.707 -0.1899 -0.5005 -0.1993
   15sQ     BCD 1395   4.269   6.438   6.954 -0.3368  0.2608  0.0090
   15sQ     BOD 1396   4.375   6.376   6.970  0.0925 -0.0204  0.2661
   15sQ     BND 1397   4.160   6.440   7.030  0.3913  0.2018  0.0129
   15sQ      GO 1398   4.125   6.669   6.484  0.0872 -0.0647  0.1259
   16sK      GN 1399   4.250   6.811   6.596 -0.1478 -0.0342 -0.0214
   16sK      GC 1400   4.281   6.873   6.479 -0.0872 -0.0980  0.0625
   16sK     BCG 1401   4.441   7.052   6.563  0.0221  0.2168  0.2016
   16sK     BCE 1402   4.675   7.039   6.450 -0.0649  0.0896  0.0713
   16sK      GO 1403   4.316   6.692   6.334 -0.1548 -0.1476  0.7306
   17sL      GN 1404   4.179   6.866   6.289 -0.0783 -0.0986  0.1657
   17sL      GC 1405   4.104   6.815   6.168 -0.2424 -0.0381  0.1416
   17sL     BCG 1406   3.950   7.002   6.110 -0.4654 -0.0126 -0.1988
   17sL      GO 1407   4.260   6.701   6.010 -0.0446 -0.1382 -0.1097
   18sV      GN 1408   4.115   6.586   6.135 -0.2531  0.1612 -0.0632
   18sV      GC 1409   4.160   6.446   6.084  0.5155  0.0239  0.1924
   18sV     BCB 1410   4.064   6.338   6.148  0.1390  0.0796 -0.0766
   18sV      GO 1411   4.196   6.448   5.828  0.3633  0.0638 -0.2000
   19sF      GN 1412   4.000   6.575   5.871  0.0509  0.0561 -0.0316
   19sF      GC 1413   3.960   6.606   5.731 -0.2555 -0.0916 -0.2559
   19sF     BCG 1414   3.795   6.788   5.726  0.0732 -0.0042 -0.1911
   19sF    BCE1 1415   3.686   6.986   5.810  0.3447 -0.1943  0.0621
   19sF    BCE2 1416   3.793   6.976   5.593  0.4008  0.1489  0.1459
   19sF      GO 1417   4.158   6.662   5.598  0.0612 -0.2918 -0.1586
   20sF      GN 1418   4.026   6.490   5.537  0.1926  0.0380 -0.3314
   20sF      GC 1419   4.094   6.448   5.428  0.3373 -0.1209  0.2105
   20sF     BCG 1420   4.297   6.298   5.417  0.2735  0.2793 -0.1671
   20sF    BCE1 1421   4.377   6.063   5.464 -0.2844  0.0977  0.4747
   20sF    BCE2 1422   4.418   6.251   5.610 -0.0601 -0.3698 -0.0146
   20sF      GO 1423   3.943   6.394   5.269  0.2461  0.0155 -0.1389
   21sA      GN 1424   4.111   6.544   5.227  0.0963  0.1150  0.0068
   21sA      GC 1425   4.068   6.576   5.099 -0.0478  0.0477  0.2888
   21sA      GO 1426   4.269   6.606   4.944  0.2033  0.2251  0.0658
   22sE      GN 1427   4.097   6.492   4.856  0.2167  0.3836  0.0735
   22sE      GC 1428   4.135   6.490   4.726 -0.2128 -0.0082  0.2881
   22sE     BCD 1429   4.160   6.126   4.706  0.2426  0.1960 -0.2842
   22sE    BOE1 1430   4.189   6.104   4.846 -0.0664 -0.2057 -0.0806
   22sE    BOE2 1431   4.238   6.057   4.634 -0.0876 -0.1810  0.0839
   22sE      GO 1432   4.017   6.659   4.602 -0.1560 -0.0525  0.2989
   23sD      GN 1433   4.245   6.615   4.548  0.0164 -0.1098  0.1294
   23sD      GC 1434   4.241   6.700   4.426 -0.0639 -0.4174  0.2457
   23sD     BCG 1435   4.477   6.741   4.330  0.0260  0.4393  0.1001
   23sD    BOE1 1436   4.542   6.842   4.330  0.2442 -0.0390 -0.4536
   23sD    BOE2 1437   4.510   6.621   4.270  0.1435 -0.0934  0.2441
   23sD      GO 1438   4.040   6.674   4.290  0.0743 -0.1614  0.1598
   24sV      GN 1439   4.116   6.479   4.341 -0.0999 -0.0920  0.5675
   24sV      GC 1440   4.019   6.404   4.245  0.0764 -0.1038  0.2111
   24sV     BCB 1441   4.132   6.333   4.179  0.1700  0.1275 -0.3038
   24sV      GO 1442   3.840   6.328   4.371  0.0309 -0.3418  0.2427
   25sG      GN 1443   3.762   6.453   4.205  0.1592 -0.0091  0.2001
   25sG      GC 1444   3.622   6.458   4.256  0.2504  0.2772  0.0788
   25sG      GO 1445   3.616   6.589   4.456 -0.0040 -0.3998  0.0579
   26sS      GN 1446   3.427   6.629   4.323 -0.4042 -0.0103  0.2041
   26sS      GC 1447   3.380   6.718   4.413  0.0402  0.1735 -0.2244
   26sS     BOG 1448   3.186   6.805   4.328  0.1748 -0.2667  0.0317
   26sS     BPG 1449   3.177   6.852   4.236  0.1238  0.1463 -0.5395
   26sS      GO 1450   3.415   6.629   4.649  0.0922  0.0876  0.0520
   27sN      GN 1451   3.476   6.841   4.603 -0.0751 -0.1409  0.0583
   27sN      GC 1452   3.533   6.861   4.734  0.2864  0.1977 -0.2776
   27sN     BCG 1453   3.646   7.068   4.782 -0.0616  0.1944 -0.3833
   27sN     BND 1454   3.604   7.186   4.716 -0.0452  0.3136 -0.2345
   27sN     BOD 1455   3.745   7.067   4.854  0.6787 -0.3194  0.2185
   27sN      GO 1456   3.389   6.756   4.909 -0.8552 -0.0643 -0.0135
   28sK      GN 1457   3.616   6.700   4.902 -0.1543  0.0100 -0.1615
   28sK      GC 1458   3.604   6.592   5.023 -0.1271 -0.1005  0.4345
   28sK     BCG 1459   3.543   6.377   4.944  0.0342  0.1794  0.1645
   28sK     BCE 1460   3.660   6.240   4.770 -0.0377  0.0331  0.2878
   28sK      GO 1461   3.788   6.626   5.187  0.3204  0.2323 -0.1065
   29sG      GN 1462   3.564   6.662   5.263  0.1642 -0.1886  0.0605
   29sG      GC 1463   3.594   6.680   5.396  0.0587 -0.0305  0.2290
   29sG      GO 1464   3.422   6.565   5.524  0.1681 -0.0460  0.1696
   30sA      GN 1465   3.632   6.491   5.527  0.0046  0.1589  0.0204
   30sA      GC 1466   3.597   6.404   5.640  0.1492  0.3535 -0.0035
   30sA      GO 1467   3.769   6.366   5.799 -0.0771  0.0102  0.2125
   31sI      GN 1468   3.554   6.368   5.877  0.4325 -0.1126  0.2586
   31sI      GC 1469   3.585   6.373   6.020 -0.1497  0.0244 -0.1796
   31sI     BCG 1470   3.656   6.625   6.059 -0.3892  0.2835 -0.0828
   31sI      GO 1471   3.450   6.224   6.143  0.3480 -0.2544 -0.3404
   32sI      GN 1472   3.661   6.183   6.086 -0.0857  0.0820  0.1353
   32sI      GC 1473   3.675   6.054   6.129 -0.0479 -0.0161 -0.0620
   32sI     BCG 1474   3.750   5.906   5.951 -0.2021  0.0598  0.0805
   32sI      GO 1475   3.776   6.052   6.356  0.0908  0.1712  0.3330
   33sG      GN 1476   3.583   5.927   6.333  0.2668 -0.4531 -0.2304
   33sG      GC 1477   3.576   5.868   6.485  0.0272  0.1825 -0.0120
   33sG      GO 1478   3.646   5.647   6.485 -0.4271  0.0572  0.0289
   34sL      GN 1479   3.773   5.816   6.561 -0.3220 -0.1684 -0.0361
   34sL      GC 1480   3.896   5.753   6.589 -0.0512  0.0919 -0.2598
   34sL     BCG 1481   4.002   5.658   6.386  0.2012 -0.1693 -0.0402
   34sL      GO 1482   3.998   5.856   6.794 -0.1349  0.1986  0.4329
   35sM      GN 1483   3.981   6.014   6.627 -0.1573  0.2120 -0.2791
   35sM      GC 1484   4.047   6.102   6.702  0.0418 -0.0330  0.1790
   35sM     BSD 1485   4.339   6.252   6.519 -0.3899  0.1575  0.0293
   35sM      GO 1486   3.887   6.257   6.810 -0.3077 -0.2445  0.1136
   36sV      GN 1487   3.830   6.241   6.577  0.1482 -0.1550  0.1483
   36sV      GC 1488   3.703   6.326   6.593  0.1724  0.1176 -0.1052
   36sV     BCB 1489   3.720   6.431   6.475  0.0102 -0.3260  0.1241
   36sV      GO 1490   3.521   6.168   6.628  0.1788  0.2409 -0.0893
   37sG      GN 1491   3.571   6.280   6.805  0.2394  0.1729 -0.0558
   37sG      GC 1492   3.462   6.225   6.886  0.3748  0.0879 -0.2096
   37sG      GO 1493   3.481   5.984   6.925 -0.3882 -0.2743  0.0273
   38sG      GN 1494   3.424   6.089   7.105 -0.3361 -0.1054 -0.2593
   38sG      GC 1495   3.417   5.949   7.200 -0.3419 -0.1948  0.3157
   38sG      GO 1496   3.340   5.770   7.049  0.0366  0.0638  0.1015
   39sV      GN 1497   3.550   5.730   7.160  0.2429 -0.0489 -0.0953
   39sV      GC 1498   3.590   5.590   7.099 -0.3546 -0.3251 -0.3879
   39sV     BCB 1499   3.663   5.590   6.956 -0.2589 -0.2782  0.0296
   39sV      GO 1500   3.691   5.444   7.260 -0.3542 -0.0993 -0.0280
   40sV      GN 1501   3.469   5.403   7.219  0.1357  0.1178  0.0680
   40sV      GC 1502   3.460   5.281   7.298  0.2451  0.1305 -0.2311
   40sV     BCB 1503   3.326   5.313   7.384 -0.2872  0.3199  0.0026
   40sV      GO 1504   3.484   5.088   7.167 -0.0088  0.0174 -0.0967
  13.00163  13.00163  13.00163
