Protein
 1504
    1sD      GN    1   4.165   2.253   5.963  0.1047 -0.2679  0.1562
    1sD      GC    2   4.269   2.282   6.061 -0.1238  0.0119 -0.1853
    1sD     BCG    3   4.232   2.469   6.222 -0.1295  0.2234 -0.0877
    1sD    BOE1    4   4.238   2.407   6.347  0.0660 -0.1650  0.4415
    1sD    BOE2    5   4.300   2.560   6.199 -0.1242 -0.2157 -0.0044
    1sD      GO    6   4.388   2.076   6.101  0.0764 -0.1836  0.0390
    2sA      GN    7   4.537   2.252   6.080 -0.1650  0.2513  0.0152
    2sA      GC    8   4.655   2.173   6.108 -0.2821 -0.2908  0.1888
    2sA      GO    9   4.599   2.015   6.264 -0.0792 -0.1276  0.0536
    3sE      GN   10   4.744   1.964   6.096 -0.0826  0.0110 -0.1263
    3sE      GC   11   4.749   1.829   6.130 -0.1136 -0.0245  0.3255
    3sE     BCD   12   5.013   1.711   5.876  0.2990 -0.0436 -0.2367
    3sE    BOE1   13   4.952   1.643   5.795  0.0157  0.0901 -0.1337
    3sE    BOE2   14   5.126   1.716   5.892  0.2593 -0.1924 -0.1208
    3sE      GO   15   4.773   1.805   6.357 -0.1895  0.0352  0.0069
    4sF      GN   16   4.591   1.710   6.257 -0.2439 -0.0673 -0.3366
    4sF      GC   17   4.549   1.654   6.401  0.0912  0.3070  0.4828
    4sF     BCG   18   4.383   1.836   6.474  0.0902  0.0879  0.1724
    4sF    BCE1   19   4.279   2.045   6.453 -0.0049 -0.1446  0.1147
    4sF    BCE2   20   4.288   1.927   6.660 -0.2896  0.1375 -0.2944
    4sF      GO   21   4.468   1.426   6.348  0.0121 -0.0706  0.0153
    5sR      GN   22   4.597   1.463   6.529 -0.0455 -0.0807 -0.2954
    5sR      GC   23   4.574   1.316   6.579 -0.1545 -0.3288  0.1433
    5sR     BCG   24   4.755   1.133   6.594 -0.1111 -0.3748  0.1263
    5sR     BCZ   25   4.974   0.934   6.396  0.2274  0.0566  0.1625
    5sR    BNN1   26   4.869   0.850   6.390  0.1682  0.1975  0.2630
    5sR    BNN2   27   5.050   0.953   6.490  0.0423 -0.2859  0.4165
    5sR      GO   28   4.404   1.332   6.733 -0.0204 -0.0851 -0.0517
    6sHe     GN   29   4.342   1.229   6.527 -0.4065 -0.1270  0.3354
    6sHe     GC   30   4.207   1.193   6.568 -0.1881 -0.0815  0.1471
    6sHe    BCG   31   4.000   1.230   6.429 -0.2288  0.4467 -0.1987
    6sHe    BNE   32   3.900   1.021   6.393 -0.4693 -0.1364 -0.0944
    6sHe    BND   33   3.935   1.205   6.313  0.0671 -0.1601  0.2283
    6sHe     GO   34   4.191   0.966   6.641  0.2008 -0.2814 -0.0898
    7sD      GN   35   4.097   1.116   6.791 -0.0075 -0.0857  0.0649
    7sD      GC   36   4.040   1.023   6.891  0.5780 -0.2304  0.2024
    7sD     BCG   37   4.125   1.074   7.126 -0.3770  0.1175  0.6139
    7sD    BOE1   38   4.024   1.087   7.192 -0.2532  0.1081  0.2878
    7sD    BOE2   39   4.232   1.108   7.162  0.0808 -0.3282 -0.1865
    7sD      GO   40   3.801   1.022   6.808 -0.3446  0.1273  0.3824
    8sSp     GN   41   3.941   0.846   6.792  0.2780  0.1980 -0.2641
    8sSp     GC   42   3.840   0.752   6.723 -0.1570  0.0982  0.5140
    8sSp    BCB   43   3.914   0.612   6.681 -0.0150 -0.1421  0.1807
    8sSp     PX   44   3.779   0.440   6.536 -0.2508 -0.0933  0.1849
    8sSp     GO   45   3.620   0.781   6.790 -0.0068  0.1506 -0.2201
    9sG      GN   46   3.640   0.833   6.576 -0.0353  0.0260 -0.2936
    9sG      GC   47   3.498   0.888   6.569  0.3883  0.1353  0.2261
    9sG      GO   48   3.405   0.822   6.353  0.0351 -0.2895 -0.2594
   10sY      GN   49   3.305   0.735   6.535 -0.0437  0.1137  0.1837
   10sY      GC   50   3.226   0.656   6.455  0.3116  0.1756 -0.0400
   10sY     BCG   51   3.062   0.496   6.545  0.0732 -0.0058 -0.0253
   10sY    BCE2   52   2.903   0.356   6.441 -0.0449 -0.1873  0.2800
   10sY    BCE1   53   3.043   0.258   6.600 -0.0308  0.0580  0.1317
   10sY      GO   54   3.130   0.743   6.263  0.0917 -0.0697  0.0477
   11sE      GN   55   3.235   0.539   6.247  0.0230  0.2054  0.0058
   11sE      GC   56   3.199   0.535   6.107 -0.0929  0.4324  0.0713
   11sE     BCD   57   3.337   0.203   6.021  0.1585  0.3027  0.2538
   11sE    BOE1   58   3.384   0.244   5.912  0.1299 -0.3206  0.0429
   11sE    BOE2   59   3.343   0.075   6.046  0.1054 -0.0238  0.3451
   11sE      GO   60   2.971   0.592   6.083 -0.2094 -0.0002 -0.1799
   12sV      GN   61   3.110   0.651   5.931  0.4391 -0.0846 -0.1498
   12sV      GC   62   3.002   0.725   5.838  0.1127  0.0594  0.0191
   12sV     BCB   63   3.079   0.781   5.724 -0.0825 -0.4263 -0.1017
   12sV      GO   64   2.794   0.619   5.831 -0.1641 -0.0168  0.2208
   13sHe     GN   65   2.821   0.816   5.954  0.1358 -0.1265 -0.0848
   13sHe     GC   66   2.695   0.836   6.002  0.3406 -0.3852  0.2357
   13sHe    BCG   67   2.518   0.841   5.815 -0.4416  0.3284 -0.3013
   13sHe    BNE   68   2.470   0.981   5.669 -0.4978 -0.0871 -0.3471
   13sHe    BND   69   2.400   0.802   5.763 -0.0001 -0.0587  0.0766
   13sHe     GO   70   2.627   0.696   6.192 -0.2236 -0.0384  0.0975
   14sHe     GN   71   2.663   0.914   6.246  0.0170  0.1921  0.1560
   14sHe     GC   72   2.620   0.888   6.384 -0.0410  0.1539 -0.4796
   14sHe    BCG   73   2.753   0.808   6.592  0.1420 -0.1304 -0.8389
   14sHe    BNE   74   2.926   0.809   6.745 -0.0220  0.1016 -0.0409
   14sHe    BND   75   2.760   0.690   6.674  0.1058 -0.0835 -0.0394
   14sHe     GO   76   2.506   1.073   6.466  0.0423 -0.3746 -0.3792
   15sQ      GN   77   2.365   0.891   6.472  0.1227  0.1138  0.5427
   15sQ      GC   78   2.242   0.954   6.514  0.0339  0.0971 -0.0604
   15sQ     BCD   79   2.028   0.845   6.271  0.2566  0.1775  0.0394
   15sQ     BOD   80   2.033   0.960   6.246  0.0377 -0.1593  0.0568
   15sQ     BND   81   1.919   0.766   6.259 -0.0188  0.1912 -0.0267
   15sQ      GO   82   2.254   0.948   6.761  0.0543  0.3465  0.0548
   16sK      GN   83   2.221   1.143   6.663 -0.1354  0.0848 -0.3088
   16sK      GC   84   2.217   1.217   6.783  0.1463  0.1490  0.1298
   16sK     BCG   85   2.254   1.439   6.701  0.2808 -0.2805 -0.2119
   16sK     BCE   86   2.348   1.650   6.622 -0.0417 -0.2087 -0.1610
   16sK      GO   87   2.082   1.091   6.938 -0.0332 -0.3726 -0.0321
   17sL      GN   88   2.299   1.149   6.997 -0.2194  0.1097 -0.1280
   17sL      GC   89   2.310   1.084   7.124  0.4040  0.0607 -0.0086
   17sL     BCG   90   2.465   0.887   7.146 -0.0113  0.1260  0.2117
   17sL      GO   91   2.265   1.247   7.296  0.1763  0.2185 -0.0561
   18sV      GN   92   2.112   1.068   7.276  0.0589 -0.0908 -0.0371
   18sV      GC   93   2.026   1.121   7.407  0.1150  0.4090  0.5240
   18sV     BCB   94   1.867   1.102   7.404 -0.4431  0.1551  0.1827
   18sV      GO   95   2.134   1.212   7.601 -0.0079 -0.1159  0.0719
   19sF      GN   96   2.236   1.038   7.520 -0.0612 -0.2488  0.0743
   19sF      GC   97   2.345   1.040   7.615  0.1178  0.0272  0.2656
   19sF     BCG   98   2.435   0.838   7.741  0.0011 -0.0613 -0.0270
   19sF    BCE1   99   2.642   0.883   7.842 -0.0239 -0.0569  0.0238
   19sF    BCE2  100   2.609   0.690   7.689 -0.2420 -0.1600  0.4091
   19sF      GO  101   2.523   1.150   7.516  0.3009  0.1503  0.0152
   20sF      GN  102   2.447   1.215   7.727 -0.1563  0.0406  0.1438
   20sF      GC  103   2.541   1.309   7.748 -0.4957  0.0005  0.1811
   20sF     BCG  104   2.528   1.544   7.658 -0.2568 -0.1158 -0.1318
   20sF    BCE1  105   2.395   1.762   7.683 -0.3021 -0.0792  0.3112
   20sF    BCE2  106   2.576   1.730   7.527 -0.0592  0.0957 -0.1366
   20sF      GO  107   2.629   1.324   7.966  0.4841 -0.1402  0.1367
   21sA      GN  108   2.740   1.245   7.792  0.3073  0.2248  0.1140
   21sA      GC  109   2.871   1.223   7.868 -0.3032 -0.2146 -0.3192
   21sA      GO  110   3.070   1.278   7.726  0.0382  0.2659  0.1859
   22sE      GN  111   2.931   1.112   7.626  0.5478 -0.2322 -0.2611
   22sE      GC  112   3.009   1.086   7.517 -0.0544  0.1848  0.2357
   22sE     BCD  113   3.124   0.807   7.732  0.2290 -0.0192 -0.1538
   22sE    BOE1  114   3.038   0.732   7.705 -0.1488  0.0713  0.0749
   22sE    BOE2  115   3.238   0.802   7.722 -0.1573 -0.0717 -0.1608
   22sE      GO  116   2.885   1.069   7.306 -0.3958 -0.0237  0.0386
   23sD      GN  117   3.083   1.196   7.310  0.0229 -0.2033 -0.4088
   23sD      GC  118   3.094   1.239   7.174 -0.1159 -0.0621  0.1515
   23sD     BCG  119   3.080   1.473   7.084  0.2384 -0.1650  0.0400
   23sD    BOE1  120   3.001   1.415   7.016  0.3023  0.1334  0.2838
   23sD    BOE2  121   3.115   1.584   7.090  0.1560 -0.1641  0.2057
   23sD      GO  122   3.258   1.084   7.055 -0.2903  0.0994  0.2080
   24sV      GN  123   3.345   1.151   7.250 -0.0071 -0.2814  0.0679
   24sV      GC  124   3.481   1.104   7.227  0.0898  0.2170 -0.1616
   24sV     BCB  125   3.588   1.200   7.283 -0.2384  0.0812  0.0995
   24sV      GO  126   3.468   0.888   7.332 -0.2788 -0.1099  0.0662
   25sG      GN  127   3.506   0.876   7.105 -0.1948 -0.1204  0.2462
   25sG      GC  128   3.508   0.725   7.102  0.0284 -0.2298  0.0166
   25sG      GO  129   3.293   0.617   7.134  0.0491 -0.0485  0.1336
   26sS      GN  130   3.407   0.539   6.971  0.0555 -0.0651  0.1037
   26sS      GC  131   3.311   0.433   6.921 -0.5117 -0.2951 -0.1475
   26sS     BOG  132   3.403   0.391   6.719 -0.3856  0.1209  0.1437
   26sS     BPG  133   3.503   0.381   6.679 -0.0740  0.1845 -0.1407
   26sS      GO  134   3.219   0.312   7.106  0.0010 -0.7381 -0.0050
   27sN      GN  135   3.073   0.427   6.971 -0.1958 -0.1146 -0.0423
   27sN      GC  136   2.951   0.379   7.030 -0.2819 -0.1161  0.3750
   27sN     BCG  137   2.881   0.478   7.248 -0.2238  0.2298 -0.1691
   27sN     BND  138   2.912   0.584   7.341 -0.1942 -0.3489  0.0090
   27sN     BOD  139   2.755   0.450   7.251 -0.1362  0.1605 -0.0631
   27sN      GO  140   2.782   0.317   6.857  0.3563 -0.2623  0.0312
   28sK      GN  141   2.827   0.174   7.011  0.1048  0.2446  0.1985
   28sK      GC  142   2.741   0.064   6.967 -0.1547  0.0621 -0.4418
   28sK     BCG  143   2.863  12.890   7.097 -0.2060 -0.3169 -0.1690
   28sK     BCE  144   2.674  12.842   7.235  0.3274  0.4829 -0.1845
   28sK      GO  145   2.513   0.121   6.931  0.2645 -0.1777 -0.2651
   29sG      GN  146   2.617   0.018   6.777 -0.2079 -0.0911 -0.0444
   29sG      GC  147   2.518   0.023   6.670 -0.0592  0.2675  0.0037
   29sG      GO  148   2.500   0.250   6.597 -0.0201  0.1340  0.2907
   30sA      GN  149   2.555   0.112   6.425 -0.0372 -0.1124 -0.0309
   30sA      GC  150   2.546   0.208   6.317 -0.1969  0.0276 -0.2164
   30sA      GO  151   2.326   0.195   6.211 -0.0759  0.2601 -0.1856
   31sI      GN  152   2.380   0.390   6.305  0.0188 -0.0202  0.1306
   31sI      GC  153   2.261   0.439   6.286  0.0179  0.1965 -0.1257
   31sI     BCG  154   2.135   0.481   6.519 -0.0197 -0.2148  0.2388
   31sI      GO  155   2.262   0.550   6.085 -0.2670  0.2430 -0.0317
   32sI      GN  156   2.117   0.376   6.097  0.2375 -0.1705 -0.1897
   32sI      GC  157   2.062   0.407   5.955 -0.3455 -0.0984 -0.0765
   32sI     BCG  158   2.075   0.203   5.799 -0.0212 -0.1493 -0.0909
   32sI      GO  159   1.894   0.564   5.965 -0.1280  0.4060 -0.0526
   33sG      GN  160   2.060   0.605   5.816  0.0431 -0.4695 -0.3412
   33sG      GC  161   1.997   0.729   5.766  0.3332  0.1803  0.0764
   33sG      GO  162   1.884   0.660   5.564  0.0811  0.0792  0.1093
   34sL      GN  163   1.778   0.797   5.707 -0.1687 -0.2375 -0.1023
   34sL      GC  164   1.677   0.823   5.641 -0.1256  0.5002  0.2859
   34sL     BCG  165   1.521   0.932   5.788 -0.0658 -0.0507 -0.2811
   34sL      GO  166   1.728   0.857   5.389  0.2527  0.2390  0.1538
   35sM      GN  167   1.827   1.004   5.524  0.0942 -0.0461  0.3461
   35sM      GC  168   1.877   1.076   5.407 -0.0772  0.0186 -0.0664
   35sM     BSD  169   1.657   1.337   5.253 -0.3098  0.1178 -0.0596
   35sM      GO  170   2.085   1.150   5.427  0.1091 -0.0305  0.2227
   36sV      GN  171   2.008   1.068   5.232 -0.1215 -0.0471  0.3016
   36sV      GC  172   2.116   1.110   5.136 -0.0590  0.0568  0.2254
   36sV     BCB  173   2.162   0.976   5.073 -0.2902  0.2955  0.2161
   36sV      GO  174   2.038   1.321   5.032 -0.0100  0.1818  0.2653
   37sG      GN  175   2.177   1.352   5.204  0.3027 -0.1937 -0.2143
   37sG      GC  176   2.180   1.498   5.179 -0.3107  0.0607 -0.0314
   37sG      GO  177   2.383   1.517   5.048  0.0186 -0.0766  0.1197
   38sG      GN  178   2.209   1.631   4.986 -0.2555  0.0931  0.2425
   38sG      GC  179   2.261   1.680   4.855 -0.2587  0.1900 -0.1049
   38sG      GO  180   2.210   1.907   4.833  0.4772  0.0379  0.2692
   39sV      GN  181   2.425   1.844   4.789  0.0748  0.1037  0.1236
   39sV      GC  182   2.484   1.986   4.745  0.0568 -0.2599 -0.1231
   39sV     BCB  183   2.614   2.020   4.812 -0.0534 -0.4216 -0.2105
   39sV      GO  184   2.476   2.031   4.502  0.0329  0.3669 -0.0112
   40sV      GN  185   2.343   2.159   4.622 -0.0254 -0.0877 -0.0645
   40sV      GC  186   2.272   2.239   4.495  0.0743 -0.0290 -0.4387
   40sV     BCB  187   2.144   2.184   4.430  0.1391  0.0752 -0.0264
   40sV      GO  188   2.256   2.462   4.527  0.0337 -0.2261 -0.6192
    1sD      GN  189   2.547   1.125   4.245  0.1243  0.1080  0.1873
    1sD      GC  190   2.597   0.985   4.249 -0.2480  0.1095  0.5147
    1sD     BCG  191   2.836   0.966   4.212 -0.0152 -0.2940  0.0323
    1sD    BOE1  192   2.933   1.046   4.250  0.1885  0.2993  0.6028
    1sD    BOE2  193   2.869   0.901   4.114  0.0411  0.4210  0.2874
    1sD      GO  194   2.460   0.868   4.387  0.4681 -0.0122 -0.0111
    2sA      GN  195   2.509   0.740   4.201  0.1693  0.0297 -0.0238
    2sA      GC  196   2.412   0.627   4.242  0.0999 -0.0027  0.2339
    2sA      GO  197   2.487   0.410   4.172  0.4386  0.5343  0.1264
    3sE      GN  198   2.412   0.466   4.362  0.1653 -0.1950 -0.2354
    3sE      GC  199   2.437   0.345   4.428 -0.1830 -0.4270 -0.2652
    3sE     BCD  200   2.803   0.374   4.498  0.0074  0.1564 -0.0855
    3sE    BOE1  201   2.850   0.304   4.412 -0.2185 -0.2801 -0.3618
    3sE    BOE2  202   2.765   0.349   4.617 -0.1533 -0.2213  0.1827
    3sE      GO  203   2.244   0.302   4.593 -0.1069  0.0034 -0.2341
    4sF      GN  204   2.264   0.153   4.445  0.2079 -0.0691  0.1798
    4sF      GC  205   2.145   0.066   4.473 -0.1458 -0.3439 -0.0317
    4sF     BCG  206   2.133  12.900   4.312  0.1711  0.2995  0.0175
    4sF    BCE1  207   2.252  12.731   4.165 -0.3159  0.3979  0.1455
    4sF    BCE2  208   2.067  12.669   4.286  0.2193 -0.0340 -0.1062
    4sF      GO  209   2.081   0.018   4.699  0.1832  0.1134 -0.1192
    5sR      GN  210   1.935   0.099   4.564 -0.1276 -0.0634  0.0827
    5sR      GC  211   1.837   0.137   4.669  0.1227  0.0610  0.2311
    5sR     BCG  212   1.781   0.374   4.674 -0.0093 -0.9910 -0.0559
    5sR     BCZ  213   1.880   0.608   4.419  0.2026 -0.3185  0.0038
    5sR    BNN1  214   1.840   0.728   4.465  0.2749  0.0368 -0.3123
    5sR    BNN2  215   1.873   0.610   4.283 -0.1087  0.1173  0.2382
    5sR      GO  216   1.677  12.958   4.679  0.2539  0.0075 -0.1836
    6sHe     GN  217   1.795   0.003   4.872 -0.0796 -0.0638  0.0289
    6sHe     GC  218   1.712  12.923   4.965 -0.0285 -0.4733 -0.4072
    6sHe    BCG  219   1.845  12.777   5.132 -0.1134 -0.3392 -0.2054
    6sHe    BNE  220   2.057  12.720   5.161 -0.3549  0.1973  0.0636
    6sHe    BND  221   1.852  12.703   5.239 -0.1758 -0.3805  0.0340
    6sHe     GO  222   1.554   0.084   5.068  0.2616 -0.0860  0.0727
    7sD      GN  223   1.494  12.879   5.014  0.0557  0.0889  0.0294
    7sD      GC  224   1.376  12.879   5.087  0.3973  0.2951  0.0867
    7sD     BCG  225   1.167  12.812   4.961 -0.1842  0.2108 -0.0311
    7sD    BOE1  226   1.109  12.709   5.020 -0.3098 -0.0226 -0.4294
    7sD    BOE2  227   1.133  12.840   4.850 -0.0167 -0.3741 -0.0459
    7sD      GO  228   1.422  12.784   5.305  0.3532 -0.2593  0.1516
    8sSp     GN  229   1.313  12.988   5.300 -0.0601  0.2749  0.3590
    8sSp     GC  230   1.290   0.003   5.430  0.1832  0.2558  0.1736
    8sSp    BCB  231   1.204   0.133   5.412 -0.2365 -0.3703  0.0400
    8sSp     PX  232   0.943   0.158   5.466 -0.2040  0.3372 -0.1005
    8sSp     GO  233   1.218  12.798   5.525  0.1986 -0.0010  0.0770
    9sG      GN  234   1.437  12.860   5.572  0.0837  0.4392 -0.0662
    9sG      GC  235   1.467  12.743   5.647  0.1418  0.3297  0.1449
    9sG      GO  236   1.430  12.783   5.871 -0.4163  0.1494 -0.1911
   10sY      GN  237   1.298  12.617   5.792 -0.0190 -0.1057  0.0131
   10sY      GC  238   1.238  12.588   5.918  0.4344 -0.2068 -0.3670
   10sY     BCG  239   1.066  12.758   5.949  0.0216  0.0979 -0.1271
   10sY    BCE2  240   0.841  12.843   5.905 -0.1174  0.0085 -0.0775
   10sY    BCE1  241   1.043  12.990   5.880 -0.1487  0.3095 -0.1210
   10sY      GO  242   1.179  12.362   5.958 -0.3835  0.1400 -0.0801
   11sE      GN  243   1.314  12.469   6.105  0.4717 -0.2027 -0.1945
   11sE      GC  244   1.321  12.362   6.209  0.2946  0.0442 -0.0678
   11sE     BCD  245   1.688  12.351   6.192  0.0368 -0.0312 -0.1030
   11sE    BOE1  246   1.769  12.259   6.264 -0.1624 -0.0703  0.0963
   11sE    BOE2  247   1.723  12.466   6.226  0.3315 -0.4131  0.4001
   11sE      GO  248   1.157  12.401   6.383  0.1626  0.4304 -0.2115
   12sV      GN  249   1.167  12.183   6.288  0.0853 -0.2082  0.1222
   12sV      GC  250   1.075  12.109   6.377  0.1666 -0.1730 -0.1876
   12sV     BCB  251   1.057  11.975   6.328  0.3432  0.0398  0.1136
   12sV      GO  252   1.105  12.171   6.613 -0.5185  0.2460 -0.1836
   13sHe     GN  253   0.906  12.237   6.525 -0.0739 -0.2516 -0.1888
   13sHe     GC  254   0.862  12.319   6.643 -0.0896 -0.1745 -0.1765
   13sHe    BCG  255   0.815  12.203   6.863  0.0355 -0.2104  0.1963
   13sHe    BNE  256   0.644  12.120   6.974 -0.2427  0.2154  0.4480
   13sHe    BND  257   0.818  12.248   6.995 -0.0108 -0.1703 -0.2467
   13sHe     GO  258   0.995  12.505   6.676 -0.1499 -0.1356  0.3786
   14sHe     GN  259   0.783  12.504   6.651  0.1976 -0.1890  0.0473
   14sHe     GC  260   0.775  12.656   6.617 -0.0797 -0.0660 -0.2195
   14sHe    BCG  261   0.794  12.676   6.363  0.0701 -0.3941  0.2590
   14sHe    BNE  262   0.810  12.527   6.186 -0.0181  0.3343 -0.2288
   14sHe    BND  263   0.710  12.677   6.255  0.4220  0.3641 -0.0836
   14sHe     GO  264   0.573  12.740   6.737 -0.4456  0.0808  0.3608
   15sQ      GN  265   0.775  12.841   6.750  0.0635 -0.0264 -0.2656
   15sQ      GC  266   0.734  12.957   6.850  0.0705  0.0148  0.0485
   15sQ     BCD  267   0.725  12.771   7.137 -0.1521  0.2037 -0.3152
   15sQ     BOD  268   0.823  12.821   7.215  0.1027  0.2086  0.2444
   15sQ     BND  269   0.602  12.796   7.191  0.1861 -0.2727  0.2262
   15sQ      GO  270   0.844   0.161   6.785 -0.1241 -0.0901 -0.0789
   16sK      GN  271   0.646   0.175   6.858  0.3016  0.1853 -0.1696
   16sK      GC  272   0.635   0.314   6.849  0.3357  0.2418  0.2555
   16sK     BCG  273   0.392   0.374   6.901 -0.3148  0.2638  0.0539
   16sK     BCE  274   0.186   0.394   7.050 -0.3461  0.0916 -0.0950
   16sK      GO  275   0.829   0.411   6.925  0.0876  0.0017 -0.0258
   17sL      GN  276   0.777   0.478   6.708  0.2871  0.1552 -0.2594
   17sL      GC  277   0.897   0.566   6.678 -0.0811 -0.3389  0.1118
   17sL     BCG  278   0.891   0.698   6.452  0.1329 -0.1307  0.3362
   17sL      GO  279   0.941   0.681   6.875 -0.0379 -0.3123  0.0799
   18sV      GN  280   1.081   0.526   6.834 -0.0223 -0.0970  0.0992
   18sV      GC  281   1.156   0.560   6.952  0.5231  0.1360  0.1548
   18sV     BCB  282   1.246   0.444   7.010 -0.0219  0.0767 -0.0311
   18sV      GO  283   1.193   0.800   6.996 -0.2571 -0.1732 -0.3104
   19sF      GN  284   1.286   0.716   6.802  0.2928 -0.1813 -0.0549
   19sF      GC  285   1.337   0.851   6.770  0.0152  0.1377 -0.2593
   19sF     BCG  286   1.573   0.821   6.662 -0.1290  0.2507 -0.4354
   19sF    BCE1  287   1.788   0.715   6.705  0.2277  0.2195 -0.0979
   19sF    BCE2  288   1.641   0.621   6.553  0.2171 -0.0040  0.1421
   19sF      GO  289   1.195   0.965   6.610  0.0415  0.1270  0.1922
   20sF      GN  290   1.201   1.045   6.801  0.2248  0.3098 -0.0138
   20sF      GC  291   1.102   1.136   6.774  0.2985 -0.5578  0.0999
   20sF     BCG  292   0.849   1.086   6.755  0.4007  0.2270  0.5804
   20sF    BCE1  293   0.625   1.034   6.604 -0.0326 -0.0173 -0.6325
   20sF    BCE2  294   0.669   1.242   6.691  0.0408  0.2903  0.0778
   20sF      GO  295   1.127   1.340   6.886 -0.0005 -0.3058 -0.2744
   21sA      GN  296   1.086   1.328   6.669  0.0240 -0.1149 -0.1353
   21sA      GC  297   1.065   1.471   6.648 -0.2759  0.1404  0.1114
   21sA      GO  298   0.897   1.521   6.478 -0.1189  0.1009 -0.0824
   22sE      GN  299   1.030   1.366   6.412  0.0509 -0.0206  0.2230
   22sE      GC  300   0.965   1.351   6.278 -0.1591 -0.0758  0.1152
   22sE     BCD  301   1.064   1.665   6.105  0.2221  0.0125  0.2385
   22sE    BOE1  302   0.985   1.733   6.023  0.0521  0.0590  0.0166
   22sE    BOE2  303   1.185   1.658   6.062  0.1591  0.1959 -0.1837
   22sE      GO  304   0.954   1.127   6.198  0.0846  0.1572 -0.4231
   23sD      GN  305   0.783   1.255   6.225  0.1744 -0.0713  0.0143
   23sD      GC  306   0.679   1.153   6.176 -0.0654 -0.3375  0.2227
   23sD     BCG  307   0.447   1.234   6.164 -0.0022 -0.3223  0.2148
   23sD    BOE1  308   0.372   1.254   6.056 -0.4394 -0.2361 -0.2241
   23sD    BOE2  309   0.390   1.272   6.263 -0.2490 -0.0456 -0.0020
   23sD      GO  310   0.753   1.027   5.987  0.0802  0.2704 -0.0450
   24sV      GN  311   0.764   1.234   5.955 -0.5377 -0.1992  0.1088
   24sV      GC  312   0.826   1.224   5.813  0.3974  0.1804 -0.3279
   24sV     BCB  313   0.738   1.321   5.716  0.1510 -0.3508 -0.0686
   24sV      GO  314   1.063   1.226   5.805  0.1728 -0.0555 -0.1775
   25sG      GN  315   0.964   1.018   5.744 -0.0080 -0.2521 -0.3443
   25sG      GC  316   1.084   0.927   5.734 -0.5812 -0.2385 -0.2457
   25sG      GO  317   1.087   0.728   5.593  0.2484  0.0609  0.0117
   26sS      GN  318   0.942   0.717   5.772 -0.1578  0.2009 -0.1128
   26sS      GC  319   0.901   0.592   5.753  0.4641  0.2773  0.3529
   26sS     BOG  320   1.037   0.392   5.791 -0.2207  0.4002 -0.2508
   26sS     BPG  321   1.061   0.328   5.703  0.3074  0.0969 -0.2535
   26sS      GO  322   0.663   0.585   5.818  0.2449  0.2074 -0.0250
   27sN      GN  323   0.721   0.533   5.611  0.1386 -0.2584 -0.0825
   27sN      GC  324   0.580   0.493   5.560  0.1673 -0.1324 -0.0600
   27sN     BCG  325   0.574   0.475   5.321  0.0051  0.2313 -0.0574
   27sN     BND  326   0.620   0.367   5.229  0.1382 -0.0229 -0.1597
   27sN     BOD  327   0.502   0.559   5.264 -0.4899 -0.1065  0.0342
   27sN      GO  328   0.431   0.366   5.712 -0.3413 -0.1128  0.4224
   28sK      GN  329   0.626   0.278   5.682 -0.1495  0.2360  0.3567
   28sK      GC  330   0.600   0.173   5.749 -0.0351  0.0409 -0.0393
   28sK     BCG  331   0.633  12.983   5.612  0.3805 -0.1189  0.2338
   28sK     BCE  332   0.688  12.757   5.540  0.3497  0.0949 -0.1199
   28sK      GO  333   0.675   0.210   5.986  0.5525 -0.1722  0.3308
   29sG      GN  334   0.465   0.124   5.968  0.3380  0.4094 -0.1148
   29sG      GC  335   0.447   0.115   6.105 -0.3201  0.1649 -0.0214
   29sG      GO  336   0.650   0.039   6.203 -0.0607 -0.6404  0.2724
   30sA      GN  337   0.542   0.227   6.301  0.0137 -0.1566  0.0992
   30sA      GC  338   0.629   0.248   6.407  0.0541  0.0616 -0.0214
   30sA      GO  339   0.687   0.030   6.481 -0.5219  0.2507  0.4286
   31sI      GN  340   0.826   0.202   6.466 -0.0198  0.1572 -0.2961
   31sI      GC  341   0.963   0.125   6.495  0.2265 -0.0175 -0.2912
   31sI     BCG  342   1.030   0.013   6.282  0.1447  0.0344 -0.1594
   31sI      GO  343   1.116   0.260   6.641 -0.0002  0.3812 -0.1126
   32sI      GN  344   1.105   0.039   6.691 -0.0162 -0.1336  0.1834
   32sI      GC  345   1.228   0.041   6.783 -0.0811 -0.1269  0.0487
   32sI     BCG  346   1.132  12.999   6.998 -0.1235  0.1291 -0.0456
   32sI      GO  347   1.402  12.969   6.655 -0.0820  0.0101  0.5853
   33sG      GN  348   1.407   0.168   6.737  0.0282  0.0352  0.1091
   33sG      GC  349   1.533   0.221   6.673  0.1578  0.0587 -0.1280
   33sG      GO  350   1.701   0.037   6.652 -0.1482 -0.2437  0.1710
   34sL      GN  351   1.660   0.166   6.479  0.0475  0.0723  0.0429
   34sL      GC  352   1.757   0.107   6.377  0.0054 -0.0748 -0.1861
   34sL     BCG  353   1.658  12.912   6.255 -0.1956 -0.0637  0.0519
   34sL      GO  354   1.853   0.287   6.236 -0.1953  0.2012 -0.0412
   35sM      GN  355   1.633   0.260   6.185 -0.2097 -0.4140  0.1346
   35sM      GC  356   1.636   0.371   6.083 -0.4195 -0.0640  0.1557
   35sM     BSD  357   1.470   0.235   5.785  0.5198  0.2393  0.0135
   35sM      GO  358   1.558   0.586   6.154 -0.2339 -0.2858  0.0714
   36sV      GN  359   1.405   0.415   6.121  0.1720  0.0393 -0.0792
   36sV      GC  360   1.280   0.492   6.164 -0.0383  0.1276  0.2149
   36sV     BCB  361   1.166   0.395   6.175  0.0963 -0.1937  0.0936
   36sV      GO  362   1.332   0.626   6.369  0.0448  0.0030 -0.0412
   37sG      GN  363   1.263   0.752   6.194 -0.0525 -0.1259  0.0540
   37sG      GC  364   1.283   0.873   6.260  0.0338 -0.0796 -0.2544
   37sG      GO  365   1.518   0.915   6.283 -0.1426 -0.0423  0.3408
   38sG      GN  366   1.367   1.099   6.283 -0.2456  0.2936 -0.0860
   38sG      GC  367   1.478   1.201   6.292 -0.1499 -0.2172  0.4585
   38sG      GO  368   1.494   1.270   6.511 -0.0041 -0.0875  0.0898
   39sV      GN  369   1.672   1.247   6.398 -0.0479  0.0131 -0.1465
   39sV      GC  370   1.772   1.272   6.518 -0.1034  0.1618  0.0039
   39sV     BCB  371   1.809   1.133   6.606  0.1267  0.1282 -0.4720
   39sV      GO  372   1.971   1.398   6.435 -0.0831  0.3087  0.1490
   40sV      GN  373   1.789   1.507   6.503  0.0005  0.4448  0.0777
   40sV      GC  374   1.850   1.626   6.481 -0.0717 -0.0585 -0.3354
   40sV     BCB  375   1.764   1.732   6.425  0.5038  0.0407  0.3534
   40sV      GO  376   1.963   1.723   6.681 -0.3051 -0.0128  0.1794
    1sD      GN  377   3.893   3.349   6.313  0.3325 -0.0544 -0.1629
    1sD      GC  378   3.901   3.241   6.205 -0.2162 -0.1861  0.0401
    1sD     BCG  379   3.827   3.005   6.212 -0.1879 -0.0720 -0.0731
    1sD    BOE1  380   3.907   2.900   6.179  0.1281  0.0092 -0.1211
    1sD    BOE2  381   3.730   2.970   6.265  0.1742 -0.1192 -0.1777
    1sD      GO  382   3.823   3.356   6.012  0.1192  0.0601 -0.0497
    2sA      GN  383   3.986   3.219   5.943 -0.1264 -0.0989 -0.5014
    2sA      GC  384   3.992   3.252   5.806  0.0404 -0.1611  0.2518
    2sA      GO  385   3.864   3.074   5.708  0.1797 -0.0676 -0.0441
    3sE      GN  386   3.809   3.280   5.647 -0.1350  0.2261  0.0084
    3sE      GC  387   3.695   3.237   5.562  0.1089  0.3663 -0.0780
    3sE     BCD  388   3.406   3.393   5.736 -0.0519 -0.2656 -0.3891
    3sE    BOE1  389   3.434   3.400   5.879  0.3030  0.2819  0.1097
    3sE    BOE2  390   3.396   3.289   5.686 -0.0257  0.2736  0.3115
    3sE      GO  391   3.748   3.195   5.338 -0.1996 -0.2955  0.2435
    4sF      GN  392   3.657   3.028   5.445 -0.2813 -0.0179 -0.2400
    4sF      GC  393   3.655   2.949   5.326 -0.3192  0.3193 -0.0064
    4sF     BCG  394   3.607   2.704   5.307  0.1682  0.0642  0.2139
    4sF    BCE1  395   3.520   2.526   5.436  0.0353  0.1570  0.0120
    4sF    BCE2  396   3.747   2.530   5.396 -0.0837  0.1926  0.3381
    4sF      GO  397   3.607   3.065   5.125 -0.0947 -0.0872 -0.1461
    5sR      GN  398   3.796   2.937   5.121 -0.3721  0.1091  0.1064
    5sR      GC  399   3.846   2.957   4.989  0.5275  0.1746 -0.3805
    5sR     BCG  400   3.974   3.175   4.959 -0.0464  0.2315  0.3271
    5sR     BCZ  401   4.123   3.137   4.628  0.4737  0.0141 -0.3819
    5sR    BNN1  402   4.180   3.246   4.595  0.4201 -0.0613  0.3728
    5sR    BNN2  403   4.019   3.067   4.581 -0.0461 -0.1951  0.0371
    5sR      GO  404   3.898   2.740   4.917 -0.2169 -0.1607 -0.2269
    6sHe     GN  405   3.734   2.873   4.808 -0.2463  0.3940 -0.0575
    6sHe     GC  406   3.689   2.759   4.716 -0.0727  0.1326  0.0128
    6sHe    BCG  407   3.443   2.777   4.686  0.0065  0.2486 -0.1298
    6sHe    BNE  408   3.310   2.591   4.720 -0.1794  0.0735  0.1563
    6sHe    BND  409   3.314   2.795   4.675 -0.0154  0.1106  0.1558
    6sHe     GO  410   3.782   2.742   4.499  0.1537 -0.1202  0.1924
    7sD      GN  411   3.750   2.568   4.620  0.0745 -0.0342 -0.0449
    7sD      GC  412   3.753   2.481   4.515 -0.2455  0.3822  0.1126
    7sD     BCG  413   3.923   2.303   4.575 -0.1465 -0.1233 -0.3414
    7sD    BOE1  414   3.971   2.241   4.692  0.2987 -0.3019  0.3875
    7sD    BOE2  415   4.000   2.269   4.478 -0.1903 -0.2067 -0.0626
    7sD      GO  416   3.534   2.452   4.455  0.0568  0.1278  0.0597
    8sSp     GN  417   3.687   2.488   4.285  0.1212 -0.0746 -0.1280
    8sSp     GC  418   3.577   2.487   4.181 -0.0979  0.2383  0.2518
    8sSp    BCB  419   3.651   2.462   4.050 -0.0288  0.3799  0.1474
    8sSp     PX  420   3.561   2.521   3.802  0.3514  0.2929  0.0455
    8sSp     GO  421   3.425   2.310   4.235  0.5622 -0.1935  0.0844
    9sG      GN  422   3.335   2.524   4.223  0.2870  0.0588 -0.0237
    9sG      GC  423   3.197   2.480   4.274 -0.3817 -0.1323  0.1774
    9sG      GO  424   3.140   2.255   4.187  0.0777 -0.1305 -0.2513
   10sY      GN  425   3.111   2.306   4.405  0.0774 -0.3463 -0.0814
   10sY      GC  426   3.060   2.185   4.449  0.1503 -0.1801 -0.2123
   10sY     BCG  427   2.975   2.227   4.681  0.1363  0.2722 -0.3004
   10sY    BCE2  428   3.079   2.265   4.911 -0.1786  0.1116  0.4044
   10sY    BCE1  429   2.892   2.401   4.835 -0.0373  0.2729  0.1070
   10sY      GO  430   2.916   2.089   4.306 -0.0552  0.5349  0.0185
   11sE      GN  431   3.079   1.951   4.398 -0.2418 -0.3584  0.0523
   11sE      GC  432   3.022   1.830   4.338 -0.0378  0.0112  0.3447
   11sE     BCD  433   3.335   1.705   4.176  0.1189  0.0336  0.3664
   11sE    BOE1  434   3.375   1.817   4.138  0.0512 -0.2260  0.2383
   11sE    BOE2  435   3.398   1.630   4.250 -0.0747 -0.0692 -0.0221
   11sE      GO  436   2.876   1.719   4.481 -0.4911  0.2546 -0.1510
   12sV      GN  437   2.780   1.788   4.291 -0.0790 -0.2668 -0.1439
   12sV      GC  438   2.652   1.738   4.316 -0.0914 -0.2385  0.2975
   12sV     BCB  439   2.556   1.748   4.193  0.0329 -0.2282  0.0417
   12sV      GO  440   2.661   1.526   4.391 -0.0835  0.0595 -0.1330
   13sHe     GN  441   2.592   1.676   4.537  0.3433 -0.2990  0.1547
   13sHe     GC  442   2.578   1.576   4.641  0.6101 -0.1293  0.0150
   13sHe    BCG  443   2.419   1.388   4.634  0.2660 -0.0856  0.1008
   13sHe    BNE  444   2.418   1.187   4.758 -0.2502  0.0335  0.2178
   13sHe    BND  445   2.301   1.335   4.692 -0.1333 -0.0442  0.5250
   13sHe     GO  446   2.788   1.501   4.721 -0.0114  0.2740  0.2405
   14sHe     GN  447   2.656   1.586   4.873 -0.0597 -0.1013  0.3196
   14sHe     GC  448   2.756   1.561   4.991  0.0631  0.0668  0.4129
   14sHe    BCG  449   2.958   1.710   4.997  0.1359 -0.3614 -0.2338
   14sHe    BNE  450   3.015   1.901   5.104  0.2108 -0.1355  0.0473
   14sHe    BND  451   3.037   1.794   4.920  0.2937  0.0223 -0.0072
   14sHe     GO  452   2.645   1.535   5.184 -0.0444  0.1791  0.2611
   15sQ      GN  453   2.809   1.384   5.147 -0.1103 -0.3896  0.1504
   15sQ      GC  454   2.794   1.316   5.286 -0.2693 -0.0398  0.1096
   15sQ     BCD  455   2.522   1.150   5.179  0.1543 -0.0103 -0.3559
   15sQ     BOD  456   2.543   1.098   5.085  0.0253 -0.1606  0.3792
   15sQ     BND  457   2.500   1.111   5.309 -0.0639  0.2282  0.3856
   15sQ      GO  458   3.018   1.251   5.369  0.3192 -0.6227  0.0056
   16sK      GN  459   2.906   1.393   5.501  0.3795 -0.2618  0.0506
   16sK      GC  460   2.996   1.406   5.599  0.3467 -0.1337 -0.1536
   16sK     BCG  461   2.904   1.558   5.771 -0.2544  0.1121 -0.3239
   16sK     BCE  462   2.811   1.665   5.971  0.1291 -0.1324 -0.0841
   16sK      GO  463   3.089   1.195   5.638  0.1856  0.2129  0.2752
   17sL      GN  464   3.226   1.364   5.608 -0.1811 -0.0670 -0.4730
   17sL      GC  465   3.346   1.290   5.613  0.0694  0.0571 -0.2861
   17sL     BCG  466   3.421   1.195   5.395 -0.1866 -0.0062  0.0479
   17sL      GO  467   3.527   1.408   5.708 -0.4866 -0.0069 -0.0739
   18sV      GN  468   3.439   1.227   5.787  0.0026  0.1075 -0.0527
   18sV      GC  469   3.531   1.202   5.893 -0.2001 -0.0396 -0.2570
   18sV     BCB  470   3.468   1.196   6.042  0.2669 -0.1153  0.0545
   18sV      GO  471   3.720   1.048   5.834  0.0447 -0.0327 -0.2229
   19sF      GN  472   3.787   1.263   5.844  0.2129 -0.0265 -0.1565
   19sF      GC  473   3.925   1.239   5.807  0.0307  0.2745  0.2728
   19sF     BCG  474   3.971   1.216   5.546  0.2889 -0.1039 -0.5564
   19sF    BCE1  475   3.827   1.216   5.368 -0.0399 -0.0129  0.0236
   19sF    BCE2  476   4.021   1.358   5.370 -0.0957 -0.0849  0.2188
   19sF      GO  477   4.075   1.362   5.929  0.0200 -0.2250  0.0635
   20sF      GN  478   4.130   1.154   5.885  0.2646  0.2343 -0.0045
   20sF      GC  479   4.244   1.161   5.964  0.1885  0.0351  0.3694
   20sF     BCG  480   4.275   0.973   6.113  0.0699  0.3211  0.2097
   20sF    BCE1  481   4.193   0.836   6.299 -0.3176 -0.0982 -0.0956
   20sF    BCE2  482   4.386   0.786   6.172 -0.0925  0.2403 -0.0668
   20sF      GO  483   4.423   1.212   5.809 -0.1339  0.2618 -0.0969
   21sA      GN  484   4.366   1.365   5.960  0.2929 -0.3711 -0.0900
   21sA      GC  485   4.467   1.476   5.944  0.3968  0.3656  0.2185
   21sA      GO  486   4.396   1.681   6.038  0.0873 -0.1747  0.5424
   22sE      GN  487   4.280   1.609   5.854  0.2095 -0.0702  0.1233
   22sE      GC  488   4.190   1.717   5.858 -0.0491 -0.2834  0.7185
   22sE     BCD  489   4.419   2.000   5.727 -0.0178  0.0435 -0.2026
   22sE    BOE1  490   4.324   2.021   5.625  0.0759 -0.3565  0.1683
   22sE    BOE2  491   4.509   2.090   5.690 -0.0860  0.1566 -0.0793
   22sE      GO  492   3.951   1.626   5.796 -0.3088 -0.2725 -0.1941
   23sD      GN  493   3.998   1.827   5.913 -0.2079 -0.0193  0.2677
   23sD      GC  494   3.841   1.858   5.938 -0.2472  0.2252  0.3851
   23sD     BCG  495   3.784   2.026   6.092 -0.3317 -0.3482  0.2607
   23sD    BOE1  496   3.710   2.132   6.087 -0.2015  0.1801 -0.1804
   23sD    BOE2  497   3.870   2.031   6.184 -0.0807  0.1505 -0.0604
   23sD      GO  498   3.710   1.806   5.732  0.1846  0.1896 -0.2576
   24sV      GN  499   3.883   1.960   5.699  0.1036  0.0216  0.1853
   24sV      GC  500   3.851   1.998   5.551 -0.0276  0.3427  0.0976
   24sV     BCB  501   3.820   2.143   5.526  0.1115 -0.0620 -0.3267
   24sV      GO  502   3.990   1.862   5.388 -0.0273  0.0217 -0.2262
   25sG      GN  503   3.770   1.794   5.445  0.0370 -0.0247  0.0069
   25sG      GC  504   3.777   1.674   5.361 -0.1351  0.1359  0.1313
   25sG      GO  505   3.685   1.725   5.143  0.4403  0.0722 -0.2924
   26sS      GN  506   3.524   1.727   5.314 -0.3776  0.0977  0.2058
   26sS      GC  507   3.423   1.768   5.233  0.1370  0.6112  0.4543
   26sS     BOG  508   3.257   1.589   5.226  0.1457  0.0250  0.3141
   26sS     BPG  509   3.174   1.608   5.273 -0.1180  0.0836 -0.2505
   26sS      GO  510   3.372   2.008   5.259 -0.3169  0.0032 -0.0082
   27sN      GN  511   3.442   1.945   5.058 -0.0012  0.1545 -0.3464
   27sN      GC  512   3.439   2.080   4.992  0.0063 -0.1209 -0.0690
   27sN     BCG  513   3.622   2.228   5.053  0.0946 -0.0045  0.1066
   27sN     BND  514   3.620   2.320   4.927  0.2005  0.3996  0.2106
   27sN     BOD  515   3.737   2.173   5.046 -0.0006 -0.1964  0.2533
   27sN      GO  516   3.355   2.074   4.758  0.3264  0.1108 -0.1573
   28sK      GN  517   3.480   1.900   4.789  0.2418 -0.0488  0.0578
   28sK      GC  518   3.455   1.842   4.660 -0.1982 -0.5659 -0.1605
   28sK     BCG  519   3.591   1.969   4.487 -0.2053 -0.0441 -0.3905
   28sK     BCE  520   3.714   1.951   4.277 -0.4085 -0.2959  0.0374
   28sK      GO  521   3.432   1.601   4.700  0.4678  0.0121  0.1083
   29sG      GN  522   3.257   1.679   4.592 -0.0706 -0.6613 -0.2847
   29sG      GC  523   3.161   1.572   4.610 -0.2450  0.1861  0.3649
   29sG      GO  524   3.279   1.369   4.585  0.1330 -0.0209 -0.0499
   30sA      GN  525   3.151   1.411   4.763  0.1892  0.5860  0.1911
   30sA      GC  526   3.180   1.285   4.839  0.1966  0.3571 -0.4480
   30sA      GO  527   2.969   1.232   4.963  0.1134  0.0048 -0.1725
   31sI      GN  528   3.063   1.040   4.842  0.2190 -0.2953 -0.0906
   31sI      GC  529   2.929   0.964   4.855 -0.3527 -0.0476 -0.1172
   31sI     BCG  530   2.753   1.058   4.699 -0.1070 -0.4729  0.0292
   31sI      GO  531   2.996   0.732   4.894  0.0196  0.0080 -0.1213
   32sI      GN  532   2.866   0.839   5.063 -0.3307 -0.0529  0.2915
   32sI      GC  533   2.860   0.727   5.146 -0.0294  0.1117 -0.1151
   32sI     BCG  534   3.082   0.715   5.291  0.0703  0.1209 -0.0718
   32sI      GO  535   2.641   0.718   5.236  0.1545 -0.0469  0.0972
   33sG      GN  536   2.719   0.511   5.171  0.2387 -0.3851  0.1395
   33sG      GC  537   2.601   0.449   5.224 -0.1927  0.7899  0.1218
   33sG      GO  538   2.673   0.213   5.306 -0.4890 -0.4252  0.4028
   34sL      GN  539   2.555   0.352   5.425 -0.3735 -0.1959  0.0054
   34sL      GC  540   2.542   0.259   5.551 -0.1294  0.0674  0.0490
   34sL     BCG  541   2.488   0.394   5.751  0.3169  0.1495 -0.2835
   34sL      GO  542   2.495   0.034   5.451 -0.3329  0.3853 -0.0253
   35sM      GN  543   2.311   0.152   5.429 -0.1917 -0.1760 -0.1032
   35sM      GC  544   2.235   0.048   5.353 -0.0141 -0.0543 -0.0954
   35sM     BSD  545   2.114  12.823   5.613  0.0777  0.4978  0.1470
   35sM      GO  546   2.086   0.137   5.181 -0.2706  0.3515 -0.3883
   36sV      GN  547   2.015   0.168   5.391 -0.0519 -0.1457 -0.4715
   36sV      GC  548   1.889   0.216   5.374 -0.0523 -0.0940  0.6089
   36sV     BCB  549   1.763   0.209   5.470 -0.1191  0.1959 -0.1256
   36sV      GO  550   1.888   0.367   5.178 -0.0429 -0.1639 -0.4167
   37sG      GN  551   2.034   0.446   5.343  0.0085  0.3351  0.1229
   37sG      GC  552   2.078   0.557   5.268 -0.2379  0.3165  0.3619
   37sG      GO  553   2.294   0.506   5.158  0.0142  0.3867 -0.1450
   38sG      GN  554   2.101   0.523   5.034 -0.2733 -0.2168 -0.1247
   38sG      GC  555   2.179   0.484   4.917  0.1740 -0.1235 -0.0457
   38sG      GO  556   2.101   0.624   4.750  0.1037  0.2397 -0.0654
   39sV      GN  557   2.326   0.631   4.829  0.0944 -0.0435  0.1733
   39sV      GC  558   2.376   0.735   4.730 -0.0774 -0.0621 -0.3116
   39sV     BCB  559   2.528   0.714   4.749 -0.2126 -0.0523 -0.3199
   39sV      GO  560   2.270   0.692   4.517 -0.4184 -0.1760 -0.0194
   40sV      GN  561   2.251   0.916   4.589  0.0894 -0.1667 -0.2891
   40sV      GC  562   2.138   0.968   4.488 -0.2098  0.1387  0.0456
   40sV     BCB  563   2.054   1.102   4.526 -0.3636  0.1176 -0.1113
   40sV      GO  564   2.173   0.885   4.267 -0.0222 -0.1602 -0.1288
    1sD      GN  565  11.003   2.008   3.982  0.3505 -0.1178  0.5296
    1sD      GC  566  11.093   1.994   3.857 -0.0101  0.0802 -0.2144
    1sD     BCG  567  11.183   2.205   3.770 -0.0391 -0.3534  0.0350
    1sD    BOE1  568  11.127   2.329   3.756  0.3250  0.1094 -0.2658
    1sD    BOE2  569  11.297   2.216   3.711  0.2155  0.2097  0.0951
    1sD      GO  570  11.210   1.785   3.877  0.0624 -0.0355 -0.2112
    2sA      GN  571  11.159   1.843   3.651  0.0212 -0.2942 -0.0496
    2sA      GC  572  11.193   1.724   3.605  0.0162  0.2478  0.2498
    2sA      GO  573  11.388   1.637   3.715 -0.1847  0.0506 -0.5199
    3sE      GN  574  11.209   1.498   3.709 -0.2955 -0.2094  0.4534
    3sE      GC  575  11.269   1.379   3.781 -0.1544 -0.3726 -0.0815
    3sE     BCD  576  10.996   1.474   3.995  0.2222 -0.3627  0.0662
    3sE    BOE1  577  10.886   1.478   3.945  0.3314 -0.3079 -0.1844
    3sE    BOE2  578  10.992   1.533   4.112  0.2341 -0.5390 -0.0304
    3sE      GO  579  11.361   1.212   3.641 -0.2590  0.3473 -0.0868
    4sF      GN  580  11.491   1.342   3.777  0.0712  0.1867 -0.1996
    4sF      GC  581  11.630   1.276   3.743  0.1274  0.2639  0.2526
    4sF     BCG  582  11.710   1.339   3.525 -0.2917 -0.1253 -0.0896
    4sF    BCE1  583  11.669   1.525   3.384  0.0954  0.0360 -0.3698
    4sF    BCE2  584  11.894   1.469   3.432 -0.3375 -0.0267  0.0519
    4sF      GO  585  11.784   1.244   3.926 -0.0324  0.3890 -0.1585
    5sR      GN  586  11.707   1.067   3.825  0.3085  0.0536 -0.0486
    5sR      GC  587  11.781   0.970   3.896  0.5058  0.0379  0.0253
    5sR     BCG  588  11.660   0.832   4.071  0.1849 -0.1659  0.0039
    5sR     BCZ  589  11.495   0.637   4.324 -0.0276  0.1496  0.1422
    5sR    BNN1  590  11.364   0.639   4.273 -0.1000  0.0430 -0.3918
    5sR    BNN2  591  11.486   0.614   4.448 -0.3552  0.1763  0.0953
    5sR      GO  592  11.968   0.908   3.765 -0.1090  0.1844 -0.1435
    6sHe     GN  593  11.987   0.989   3.972 -0.2419 -0.2062 -0.1723
    6sHe     GC  594  12.143   0.989   3.967  0.0134 -0.0151 -0.1807
    6sHe    BCG  595  12.284   1.159   3.853 -0.2398 -0.4167 -0.0512
    6sHe    BNE  596  12.336   1.179   3.641  0.1758  0.1767  0.4045
    6sHe    BND  597  12.327   1.292   3.800 -0.1612  0.3152 -0.3127
    6sHe     GO  598  12.250   0.945   4.179  0.0858  0.1586 -0.1303
    7sD      GN  599  12.308   0.839   3.988 -0.3420  0.2247  0.3949
    7sD      GC  600  12.421   0.778   4.051 -0.0976  0.0525  0.1050
    7sD     BCG  601  12.428   0.529   4.061 -0.1650  0.2002 -0.2697
    7sD    BOE1  602  12.368   0.525   4.177 -0.2841  0.2038 -0.2713
    7sD    BOE2  603  12.445   0.430   4.001 -0.3329  0.0594  0.3720
    7sD      GO  604  12.613   0.923   4.018  0.1748 -0.1222  0.0229
    8sSp     GN  605  12.591   0.847   4.228 -0.2789 -0.1585  0.0225
    8sSp     GC  606  12.703   0.933   4.288 -0.3315 -0.1676  0.0807
    8sSp    BCB  607  12.642   0.987   4.417  0.2768 -0.2303  0.0097
    8sSp     PX  608  12.596   1.244   4.477  0.0010  0.2133  0.1068
    8sSp     GO  609  12.903   0.791   4.300  0.2822 -0.2473  0.0081
    9sG      GN  610  12.910   0.970   4.144 -0.1487  0.0658  0.2621
    9sG      GC  611   0.051   0.924   4.097  0.0241  0.2537  0.0605
    9sG      GO  612   0.230   1.023   4.222 -0.1718  0.1973 -0.0685
   10sY      GN  613   0.201   0.800   4.220 -0.3059  0.3756 -0.3866
   10sY      GC  614   0.318   0.761   4.313 -0.2948 -0.4354 -0.0695
   10sY     BCG  615   0.262   0.773   4.564 -0.0032  0.2913  0.3484
   10sY    BCE2  616   0.180   0.576   4.676  0.3239 -0.0358 -0.0527
   10sY    BCE1  617   0.348   0.703   4.786 -0.2203 -0.2693 -0.2313
   10sY      GO  618   0.444   0.562   4.256 -0.0754 -0.2751  0.3113
   11sE      GN  619   0.548   0.723   4.375 -0.2050 -0.2343 -0.0750
   11sE      GC  620   0.666   0.654   4.377 -0.3672 -0.6641 -0.2914
   11sE     BCD  621   0.815   0.732   4.047  0.2164 -0.2191  0.1036
   11sE    BOE1  622   0.815   0.824   3.953  0.2817 -0.1323 -0.1121
   11sE    BOE2  623   0.859   0.612   4.002 -0.3753 -0.2198  0.0210
   11sE      GO  624   0.771   0.690   4.581  0.1610  0.1287  0.1440
   12sV      GN  625   0.776   0.474   4.501 -0.2088  0.2933 -0.2315
   12sV      GC  626   0.823   0.408   4.625 -0.0443  0.1331 -0.0827
   12sV     BCB  627   0.853   0.274   4.533  0.1520  0.0953  0.2869
   12sV      GO  628   0.999   0.537   4.724  0.1791  0.0716  0.2105
   13sHe     GN  629   0.807   0.551   4.831  0.2354 -0.1363  0.3065
   13sHe     GC  630   0.838   0.658   4.924  0.2733 -0.3240  0.1449
   13sHe    BCG  631   1.001   0.582   5.077 -0.0441  0.1734 -0.0983
   13sHe    BNE  632   0.999   0.489   5.287 -0.3625  0.1580 -0.0347
   13sHe    BND  633   1.123   0.548   5.123  0.0545 -0.4448  0.2422
   13sHe     GO  634   0.876   0.882   4.821 -0.2188  0.2086 -0.3396
   14sHe     GN  635   0.684   0.860   4.948 -0.0014 -0.1088  0.0826
   14sHe     GC  636   0.624   0.996   4.952 -0.5342 -0.1785 -0.1207
   14sHe    BCG  637   0.519   1.099   4.765  0.2263 -0.3069  0.4045
   14sHe    BNE  638   0.493   1.274   4.623  0.1088 -0.0769 -0.2678
   14sHe    BND  639   0.512   1.056   4.636 -0.4649  0.3246 -0.0865
   14sHe     GO  640   0.532   1.055   5.160  0.4213  0.4424  0.0398
   15sQ      GN  641   0.661   1.212   5.057  0.1060  0.2171 -0.2741
   15sQ      GC  642   0.600   1.316   5.146 -0.2392 -0.3630  0.5134
   15sQ     BCD  643   0.878   1.450   5.289 -0.1132 -0.2172  0.1257
   15sQ     BOD  644   0.866   1.554   5.367 -0.1858  0.0986  0.0016
   15sQ     BND  645   0.987   1.444   5.201  0.4009  0.4159 -0.0262
   15sQ      GO  646   0.424   1.421   5.010 -0.1125  0.5384 -0.0715
   16sK      GN  647   0.386   1.403   5.242 -0.0971  0.2334  0.2948
   16sK      GC  648   0.281   1.495   5.227  0.2092  0.0998 -0.2859
   16sK     BCG  649   0.080   1.341   5.251 -0.0483  0.2391 -0.0886
   16sK     BCE  650  12.888   1.223   5.363  0.5453 -0.0535  0.1100
   16sK      GO  651   0.382   1.712   5.280  0.0757 -0.4097  0.4821
   17sL      GN  652   0.303   1.681   5.068 -0.0688 -0.4144  0.0026
   17sL      GC  653   0.349   1.816   5.011  0.2525 -0.1029 -0.0544
   17sL     BCG  654   0.509   1.780   4.815 -0.2855  0.3598  0.2941
   17sL      GO  655   0.174   2.001   5.006  0.0319  0.2560  0.1351
   18sV      GN  656   0.381   2.071   5.082  0.2815 -0.0399 -0.1615
   18sV      GC  657   0.325   2.208   5.112  0.0415  0.0307  0.0769
   18sV     BCB  658   0.402   2.310   5.207  0.3871  0.1898  0.2951
   18sV      GO  659   0.188   2.280   4.930 -0.1882 -0.2047 -0.2514
   19sF      GN  660   0.393   2.219   4.852  0.0019  0.1068  0.6476
   19sF      GC  661   0.372   2.258   4.692  0.5772 -0.1866 -0.6072
   19sF     BCG  662   0.539   2.148   4.531 -0.1408 -0.4464  0.0732
   19sF    BCE1  663   0.636   2.160   4.308  0.1533  0.1477  0.1063
   19sF    BCE2  664   0.776   2.103   4.489  0.3251  0.3541 -0.1101
   19sF      GO  665   0.132   2.206   4.640  0.1887  0.3020 -0.1570
   20sF      GN  666   0.234   2.380   4.551 -0.3570 -0.0793  0.0431
   20sF      GC  667   0.136   2.419   4.471  0.1138 -0.0554  0.3222
   20sF     BCG  668   0.191   2.582   4.299 -0.1127 -0.0397  0.2275
   20sF    BCE1  669   0.257   2.508   4.091 -0.3463  0.2280  0.2515
   20sF    BCE2  670   0.075   2.663   4.122 -0.1413  0.1497 -0.2799
   20sF      GO  671   0.037   2.232   4.388  0.2565  0.4911  0.3521
   21sA      GN  672  12.928   2.398   4.460 -0.0927  0.5235 -0.4209
   21sA      GC  673  12.792   2.338   4.459 -0.1856 -0.0822 -0.4113
   21sA      GO  674  12.635   2.506   4.394 -0.2134 -0.4891 -0.2456
   22sE      GN  675  12.599   2.307   4.336  0.4071 -0.1220 -0.0513
   22sE      GC  676  12.460   2.331   4.260 -0.3092  0.1593 -0.0847
   22sE     BCD  677  12.520   2.434   3.911 -0.0179  0.2046  0.0169
   22sE    BOE1  678  12.566   2.506   3.980  0.3078 -0.4198  0.1011
   22sE    BOE2  679  12.509   2.409   3.802  0.0175 -0.0198  0.4191
   22sE      GO  680  12.293   2.171   4.332 -0.1127  0.0066  0.2302
   23sD      GN  681  12.222   2.388   4.334 -0.1328 -0.1266  0.5314
   23sD      GC  682  12.091   2.365   4.374  0.1947 -0.0144  0.2497
   23sD     BCG  683  11.935   2.536   4.446  0.2670  0.1812 -0.0916
   23sD    BOE1  684  11.897   2.574   4.557 -0.0241 -0.2089 -0.3605
   23sD    BOE2  685  11.942   2.633   4.377  0.1802  0.1254  0.0697
   23sD      GO  686  11.989   2.171   4.265  0.0518  0.1337  0.1063
   24sV      GN  687  12.080   2.321   4.118  0.3613  0.0783 -0.1359
   24sV      GC  688  12.041   2.252   4.002  0.4404 -0.2869  0.0484
   24sV     BCB  689  12.063   2.339   3.888 -0.2613  0.0597 -0.2570
   24sV      GO  690  12.050   2.010   4.021  0.0709  0.0972  0.1430
   25sG      GN  691  12.269   2.088   4.060  0.0878  0.0656  0.3988
   25sG      GC  692  12.324   1.952   4.055  0.3268  0.2311 -0.1384
   25sG      GO  693  12.509   1.931   4.206  0.0838  0.3937  0.3701
   26sS      GN  694  12.339   1.762   4.230  0.4091 -0.1035  0.3037
   26sS      GC  695  12.417   1.685   4.335  0.2819 -0.2096 -0.0543
   26sS     BOG  696  12.301   1.498   4.445 -0.1055 -0.0534 -0.1043
   26sS     BPG  697  12.366   1.432   4.463  0.0626  0.3551  0.0886
   26sS      GO  698  12.646   1.708   4.284  0.1156  0.1725  0.2286
   27sN      GN  699  12.565   1.813   4.482 -0.0358  0.0638  0.2557
   27sN      GC  700  12.687   1.882   4.538 -0.2604 -0.1548  0.1665
   27sN     BCG  701  12.701   2.011   4.740  0.2469 -0.0640  0.2961
   27sN     BND  702  12.780   1.935   4.815 -0.1591 -0.0013  0.0764
   27sN     BOD  703  12.630   2.116   4.770 -0.3945  0.3705 -0.0148
   27sN      GO  704  12.868   1.729   4.498  0.0068  0.4370 -0.0459
   28sK      GN  705  12.891   1.932   4.394  0.0213 -0.3124 -0.2083
   28sK      GC  706   0.012   1.884   4.326 -0.0679  0.2705  0.1943
   28sK     BCG  707  12.969   1.860   4.076  0.1234 -0.2025 -0.2376
   28sK     BCE  708  12.864   2.053   3.940 -0.3544  0.0356 -0.2367
   28sK      GO  709   0.204   1.957   4.436 -0.0374  0.0780  0.3157
   29sG      GN  710   0.182   1.733   4.393 -0.3394 -0.1324 -0.3540
   29sG      GC  711   0.302   1.703   4.452 -0.3421 -0.2554 -0.0620
   29sG      GO  712   0.423   1.546   4.348 -0.3203  0.3282  0.2488
   30sA      GN  713   0.514   1.751   4.364  0.2579 -0.1190  0.3322
   30sA      GC  714   0.643   1.712   4.298  0.3108 -0.3029 -0.1415
   30sA      GO  715   0.807   1.665   4.468 -0.2895 -0.0788 -0.2962
   31sI      GN  716   0.726   1.498   4.333 -0.2304 -0.3749  0.0473
   31sI      GC  717   0.790   1.385   4.395 -0.1440 -0.2641 -0.1412
   31sI     BCG  718   0.692   1.188   4.297 -0.0408 -0.0968  0.1117
   31sI      GO  719   1.014   1.432   4.458  0.1517  0.3325 -0.2002
   32sI      GN  720   0.869   1.404   4.616  0.1185  0.0947 -0.1703
   32sI      GC  721   0.963   1.414   4.718  0.0609 -0.1898 -0.2423
   32sI     BCG  722   1.045   1.630   4.813  0.0506 -0.1311 -0.0956
   32sI      GO  723   0.918   1.229   4.889  0.2628 -0.2799 -0.0538
   33sG      GN  724   1.140   1.261   4.806 -0.0897 -0.0966  0.0698
   33sG      GC  725   1.196   1.152   4.895 -0.0525  0.7619  0.5571
   33sG      GO  726   1.264   1.196   5.102 -0.1169 -0.1283 -0.2612
   34sL      GN  727   1.106   1.046   5.087  0.1690 -0.1857 -0.0144
   34sL      GC  728   1.095   1.048   5.246  0.4086  0.0301 -0.1386
   34sL     BCG  729   0.899   0.931   5.319  0.3167 -0.3771 -0.0663
   34sL      GO  730   1.291   1.092   5.364 -0.2352  0.0312  0.0625
   35sM      GN  731   1.301   0.900   5.221 -0.1617 -0.1633 -0.4278
   35sM      GC  732   1.443   0.846   5.249  0.0779 -0.4943 -0.1145
   35sM     BSD  733   1.452   0.500   5.362  0.1446 -0.0079  0.0945
   35sM      GO  734   1.592   0.915   5.071  0.0298  0.3998  0.1205
   36sV      GN  735   1.418   0.789   4.996  0.1235 -0.0409 -0.0357
   36sV      GC  736   1.462   0.766   4.856 -0.2630 -0.2581  0.0805
   36sV     BCB  737   1.415   0.617   4.855 -0.0867  0.3765 -0.0203
   36sV      GO  738   1.379   0.934   4.706  0.1546 -0.2838 -0.2589
   37sG      GN  739   1.595   0.956   4.763 -0.1938  0.0440 -0.2652
   37sG      GC  740   1.623   1.062   4.681  0.0476  0.0495  0.1779
   37sG      GO  741   1.518   1.256   4.770  0.1690  0.1197  0.0138
   38sG      GN  742   1.734   1.233   4.759  0.0707 -0.3246  0.1506
   38sG      GC  743   1.769   1.366   4.799  0.0670 -0.0610  0.0333
   38sG      GO  744   1.624   1.504   4.677 -0.0744 -0.3070 -0.0550
   39sV      GN  745   1.659   1.529   4.907  0.2092 -0.1479 -0.1488
   39sV      GC  746   1.590   1.659   4.913  0.1079  0.1513 -0.1901
   39sV     BCB  747   1.471   1.609   5.003  0.1718  0.3457 -0.1008
   39sV      GO  748   1.744   1.866   4.902  0.1396  0.3324  0.0871
   40sV      GN  749   1.575   1.858   4.750  0.3841 -0.5857 -0.2002
   40sV      GC  750   1.611   1.991   4.685 -0.0427  0.0772  0.1328
   40sV     BCB  751   1.647   1.983   4.553  0.2699 -0.0825  0.3337
   40sV      GO  752   1.501   2.188   4.755 -0.2159 -0.1472  0.1987
    1sD      GN  753  11.801   0.434   5.329 -0.1288 -0.0691  0.0897
    1sD      GC  754  11.831   0.295   5.385  0.1564  0.2676  0.1808
    1sD     BCG  755  12.065   0.217   5.332  0.2633 -0.1942  0.0419
    1sD    BOE1  756  12.156   0.265   5.407 -0.1029  0.2068 -0.4785
    1sD    BOE2  757  12.108   0.152   5.242  0.2926  0.2891  0.4021
    1sD      GO  758  11.776   0.287   5.616  0.1202  0.0878 -0.2146
    2sA      GN  759  11.743   0.094   5.521 -0.2831  0.2504 -0.1205
    2sA      GC  760  11.722   0.038   5.639 -0.0064  0.3479 -0.0448
    2sA      GO  761  11.824  12.819   5.642  0.2549 -0.3936 -0.0544
    3sE      GN  762  11.872  12.968   5.788 -0.2409  0.0286  0.0889
    3sE      GC  763  11.975  12.896   5.867 -0.2032  0.1919  0.0552
    3sE     BCD  764  12.015   0.177   6.094  0.1738  0.2857  0.0711
    3sE    BOE1  765  11.895   0.152   6.112 -0.1285  0.1060  0.2811
    3sE    BOE2  766  12.073   0.274   6.076  0.1121  0.0495 -0.0032
    3sE      GO  767  11.926  12.666   5.910  0.4385  0.1577  0.0107
    4sF      GN  768  12.127  12.689   5.852  0.0543 -0.0470 -0.0569
    4sF      GC  769  12.172  12.545   5.866  0.3112  0.1375 -0.4439
    4sF     BCG  770  12.375  12.489   5.741 -0.0457 -0.1707  0.1832
    4sF    BCE1  771  12.510  12.568   5.570 -0.0789  0.2781 -0.2169
    4sF    BCE2  772  12.620  12.468   5.761 -0.0433 -0.0669  0.1795
    4sF      GO  773  12.252  12.495   6.097 -0.3471  0.0784 -0.0266
    5sR      GN  774  12.111  12.349   6.000 -0.0600 -0.1513 -0.4741
    5sR      GC  775  12.128  12.251   6.102  0.0891  0.0843  0.2412
    5sR     BCG  776  11.906  12.244   6.211 -0.1241  0.0269 -0.4613
    5sR     BCZ  777  11.700  11.948   6.240  0.2654  0.0519 -0.3957
    5sR    BNN1  778  11.748  11.836   6.231  0.1378 -0.0275  0.3609
    5sR    BNN2  779  11.705  12.055   6.175  0.0522 -0.2092  0.2414
    5sR      GO  780  12.305  12.105   6.026  0.2110 -0.1435  0.3009
    6sHe     GN  781  12.312  12.186   6.242 -0.2551 -0.3943  0.0501
    6sHe     GC  782  12.461  12.161   6.265  0.1264  0.0512 -0.0804
    6sHe    BCG  783  12.601  12.355   6.220  0.0653  0.1094  0.0570
    6sHe    BNE  784  12.615  12.566   6.284 -0.1467  0.3179 -0.1311
    6sHe    BND  785  12.702  12.407   6.164 -0.0711 -0.0368 -0.0945
    6sHe     GO  786  12.504  12.081   6.500  0.1699  0.0469 -0.0268
    7sD      GN  787  12.614  11.982   6.327  0.0256 -0.2364 -0.0460
    7sD      GC  788  12.698  11.890   6.417  0.0236  0.0960 -0.0385
    7sD     BCG  789  12.810  11.714   6.289 -0.1391 -0.0284  0.3787
    7sD    BOE1  790  12.938  11.756   6.246  0.1646 -0.2776  0.2597
    7sD    BOE2  791  12.764  11.615   6.249 -0.1732  0.0468  0.5393
    7sD      GO  792  12.772  12.020   6.600 -0.1003 -0.1601 -0.0273
    8sSp     GN  793  12.683  11.822   6.642 -0.4970 -0.0045  0.0702
    8sSp     GC  794  12.695  11.823   6.784  0.1010 -0.1667  0.0894
    8sSp    BCB  795  12.542  11.785   6.837 -0.2070 -0.1181  0.1613
    8sSp     PX  796  12.450  11.546   6.818 -0.1519 -0.1473 -0.0202
    8sSp     GO  797  12.908  11.724   6.839  0.4291 -0.1668 -0.1265
    9sG      GN  798  12.902  11.957   6.877 -0.3380 -0.0968 -0.0340
    9sG      GC  799   0.037  11.957   6.919  0.4812 -0.1388 -0.0017
    9sG      GO  800   0.093  12.129   7.084  0.4658  0.1034  0.1520
   10sY      GN  801   0.131  11.907   7.107 -0.3397  0.4010 -0.6853
   10sY      GC  802   0.196  11.916   7.245  0.0079 -0.4182  0.1811
   10sY     BCG  803   0.063  11.932   7.447  0.1503  0.0004 -0.2334
   10sY    BCE2  804   0.112  11.867   7.681 -0.1250  0.0882  0.1454
   10sY    BCE1  805  12.879  11.852   7.593  0.0976  0.2164  0.5381
   10sY      GO  806   0.401  11.785   7.293  0.3634 -0.0207 -0.2293
   11sE      GN  807   0.384  12.003   7.322 -0.2224  0.0766 -0.3590
   11sE      GC  808   0.528  12.016   7.350  0.2223 -0.1973  0.0254
   11sE     BCD  809   0.447  12.380   7.387 -0.2419 -0.1116 -0.1601
   11sE    BOE1  810   0.504  12.491   7.414  0.0375  0.3379  0.4493
   11sE    BOE2  811   0.336  12.350   7.464 -0.3420  0.1662  0.0980
   11sE      GO  812   0.604  11.848   7.474 -0.0891 -0.0900  0.0703
   12sV      GN  813   0.714  11.891   7.277  0.1519  0.1127  0.0332
   12sV      GC  814   0.810  11.785   7.287  0.3470  0.0262 -0.2621
   12sV     BCB  815   0.913  11.821   7.170 -0.0555 -0.0434  0.0331
   12sV      GO  816   0.868  11.783   7.536 -0.1058 -0.1491  0.1564
   13sHe     GN  817   0.766  11.597   7.465  0.2480  0.3623  0.2807
   13sHe     GC  818   0.743  11.518   7.592 -0.2704 -0.0351 -0.1425
   13sHe    BCG  819   0.929  11.434   7.738  0.3654 -0.0983 -0.0213
   13sHe    BNE  820   1.028  11.461   7.937  0.3098  0.2203  0.2437
   13sHe    BND  821   0.998  11.323   7.788 -0.1876  0.5846  0.2218
   13sHe     GO  822   0.592  11.634   7.748  0.0692  0.2096  0.0895
   14sHe     GN  823   0.503  11.463   7.626  0.0854 -0.1822  0.0137
   14sHe     GC  824   0.361  11.489   7.680  0.0407  0.1259 -0.1159
   14sHe    BCG  825   0.204  11.467   7.505  0.1521  0.0155 -0.0345
   14sHe    BNE  826   0.007  11.551   7.465 -0.0523 -0.1094  0.2319
   14sHe    BND  827   0.177  11.451   7.379  0.3213  0.0901  0.0032
   14sHe     GO  828   0.313  11.337   7.863 -0.2814  0.2029  0.2903
   15sQ      GN  829   0.256  11.549   7.902  0.2325 -0.0619  0.1713
   15sQ      GC  830   0.156  11.519   8.029  0.2207 -0.5529  0.0233
   15sQ     BCD  831   0.396  11.510   8.269 -0.0086  0.0105 -0.1983
   15sQ     BOD  832   0.450  11.395   8.320 -0.0015 -0.0638  0.1357
   15sQ     BND  833   0.505  11.584   8.216 -0.4335 -0.2566 -0.0274
   15sQ      GO  834  12.972  11.678   8.017 -0.0184  0.0346 -0.1116
   16sK      GN  835  12.901  11.449   7.979  0.1592 -0.6334  0.0544
   16sK      GC  836  12.760  11.489   7.963  0.2862 -0.0748 -0.1506
   16sK     BCG  837  12.635  11.305   7.842 -0.3273 -0.0592  0.1079
   16sK     BCE  838  12.443  11.172   7.735 -0.2432 -0.2844  0.2879
   16sK      GO  839  12.699  11.643   8.131  0.1150  0.0499 -0.2159
   17sL      GN  840  12.640  11.710   7.917  0.1175 -0.0589 -0.1049
   17sL      GC  841  12.560  11.841   7.958 -0.1517  0.0098 -0.2291
   17sL     BCG  842  12.680  12.039   7.861 -0.1535 -0.0204 -0.1733
   17sL      GO  843  12.332  11.799   7.955  0.1973 -0.1820 -0.5464
   18sV      GN  844  12.423  11.878   8.133 -0.1385 -0.4662 -0.1014
   18sV      GC  845  12.303  11.906   8.205 -0.1071 -0.0700 -0.1284
   18sV     BCB  846  12.319  11.916   8.360 -0.1968 -0.0177 -0.3633
   18sV      GO  847  12.122  12.002   8.060  0.0335  0.1234  0.0225
   19sF      GN  848  12.302  12.128   8.056 -0.0181 -0.1469 -0.3607
   19sF      GC  849  12.247  12.234   7.991  0.1071  0.2403  0.1891
   19sF     BCG  850  12.365  12.440   7.894 -0.3466  0.0243  0.0193
   19sF    BCE1  851  12.426  12.660   7.963  0.3499 -0.0696  0.0892
   19sF    BCE2  852  12.339  12.619   7.743  0.0616 -0.4067  0.1250
   19sF      GO  853  12.096  12.151   7.804  0.2760 -0.5518 -0.3327
   20sF      GN  854  12.034  12.308   7.956  0.3454 -0.1743  0.0994
   20sF      GC  855  11.901  12.350   7.894 -0.1371  0.4216 -0.3398
   20sF     BCG  856  11.702  12.366   8.025  0.4118 -0.3000 -0.3314
   20sF    BCE1  857  11.489  12.369   7.883 -0.1429 -0.0591 -0.4416
   20sF    BCE2  858  11.524  12.224   8.076  0.1484  0.5510  0.0169
   20sF      GO  859  11.955  12.550   7.767  0.2136  0.2508 -0.2337
   21sA      GN  860  11.854  12.375   7.690 -0.4013 -0.0780  0.0943
   21sA      GC  861  11.843  12.429   7.548 -0.1366  0.2721  0.0693
   21sA      GO  862  11.642  12.359   7.444  0.1595 -0.3209 -0.5194
   22sE      GN  863  11.694  12.582   7.419  0.1828  0.1560  0.1300
   22sE      GC  864  11.566  12.614   7.344 -0.2610  0.2558  0.1990
   22sE     BCD  865  11.560  12.968   7.427 -0.3709 -0.1048 -0.2036
   22sE    BOE1  866  11.489  12.919   7.513  0.1320  0.3673  0.4558
   22sE    BOE2  867  11.521   0.023   7.325 -0.0590 -0.0210 -0.1209
   22sE      GO  868  11.508  12.436   7.200  0.3282 -0.1655 -0.1551
   23sD      GN  869  11.345  12.552   7.321 -0.1938  0.1165  0.1727
   23sD      GC  870  11.225  12.459   7.299  0.1592  0.2522  0.1903
   23sD     BCG  871  10.993  12.478   7.405 -0.2826 -0.0358  0.1566
   23sD    BOE1  872  11.005  12.498   7.532 -0.3375 -0.0639 -0.4134
   23sD    BOE2  873  10.923  12.550   7.350 -0.2237  0.0983  0.5985
   23sD      GO  874  11.233  12.354   7.060  0.1814 -0.2035  0.0698
   24sV      GN  875  11.248  12.582   7.055 -0.2197 -0.0872 -0.1241
   24sV      GC  876  11.259  12.583   6.912 -0.2052  0.0688  0.0505
   24sV     BCB  877  11.201  12.723   6.850 -0.1812  0.0991 -0.2180
   24sV      GO  878  11.508  12.573   6.850 -0.0826  0.2427 -0.2442
   25sG      GN  879  11.391  12.413   6.764 -0.2001 -0.0126  0.1964
   25sG      GC  880  11.508  12.348   6.703  0.0994  0.3809  0.1681
   25sG      GO  881  11.666  12.503   6.609  0.1451 -0.4523 -0.0558
   26sS      GN  882  11.759  12.357   6.755 -0.0030  0.0153  0.1001
   26sS      GC  883  11.894  12.427   6.754 -0.2850  0.3965  0.2458
   26sS     BOG  884  11.923  12.502   6.964 -0.3778  0.0343  0.0390
   26sS     BPG  885  11.990  12.524   7.033  0.2990 -0.0119 -0.0215
   26sS      GO  886  12.050  12.335   6.588 -0.1297 -0.0234  0.2646
   27sN      GN  887  11.988  12.552   6.553  0.4153 -0.0217 -0.0411
   27sN      GC  888  12.078  12.573   6.435  0.0924  0.0397 -0.3036
   27sN     BCG  889  12.036  12.802   6.364  0.0297 -0.0009 -0.0425
   27sN     BND  890  11.940  12.905   6.380  0.0478  0.3855  0.0830
   27sN     BOD  891  12.154  12.842   6.338  0.3014 -0.1223 -0.3383
   27sN      GO  892  12.305  12.454   6.455  0.3671  0.1416  0.3130
   28sK      GN  893  12.240  12.576   6.619 -0.1885  0.2169  0.0216
   28sK      GC  894  12.366  12.562   6.678 -0.1595  0.0147  0.2700
   28sK     BCG  895  12.472  12.795   6.646  0.3171 -0.0708 -0.0068
   28sK     BCE  896  12.665  12.897   6.790 -0.2546  0.1019  0.0855
   28sK      GO  897  12.388  12.376   6.836  0.3810 -0.2149 -0.0636
   29sG      GN  898  12.537  12.391   6.666 -0.0927 -0.1344 -0.4517
   29sG      GC  899  12.609  12.293   6.710 -0.0566  0.4265  0.2403
   29sG      GO  900  12.792  12.371   6.836 -0.2494 -0.0734  0.3342
   30sA      GN  901  12.685  12.217   6.921  0.0313  0.1104  0.0064
   30sA      GC  902  12.755  12.219   7.059 -0.0753  0.4011  0.3190
   30sA      GO  903  12.729  12.423   7.179  0.0288 -0.0366  0.1106
   31sI      GN  904  12.688  12.243   7.296 -0.0796  0.2534 -0.0711
   31sI      GC  905  12.659  12.302   7.429  0.1496  0.0618 -0.1665
   31sI     BCG  906  12.410  12.297   7.508 -0.1833 -0.1668  0.3135
   31sI      GO  907  12.842  12.284   7.573  0.1722 -0.2316 -0.0267
   32sI      GN  908  12.724  12.478   7.514  0.0276 -0.1221  0.0283
   32sI      GC  909  12.805  12.572   7.577 -0.1404 -0.1623  0.1396
   32sI     BCG  910  12.700  12.794   7.516  0.0449  0.1091  0.0033
   32sI      GO  911  12.889  12.484   7.792  0.2391  0.1661 -0.1173
   33sG      GN  912   0.060  12.570   7.664  0.1776 -0.2491  0.3054
   33sG      GC  913   0.169  12.543   7.755  0.0513  0.4229 -0.1228
   33sG      GO  914   0.225  12.738   7.873 -0.0297  0.2356 -0.1685
   34sL      GN  915   0.129  12.573   7.983 -0.1877 -0.1270  0.3309
   34sL      GC  916   0.118  12.648   8.112  0.0388  0.1064 -0.1713
   34sL     BCG  917  12.915  12.801   8.125 -0.2090  0.0186  0.0840
   34sL      GO  918   0.179  12.497   8.288 -0.2106 -0.3087  0.0606
   35sM      GN  919  12.994  12.420   8.162  0.2582  0.2313 -0.2762
   35sM      GC  920  13.000  12.284   8.230  0.1363  0.0634  0.3702
   35sM     BSD  921  12.670  12.152   8.335 -0.3982 -0.1715 -0.4670
   35sM      GO  922   0.119  12.122   8.104  0.0882  0.2622  0.0267
   36sV      GN  923   0.205  12.174   8.308 -0.0184 -0.0393 -0.1287
   36sV      GC  924   0.318  12.077   8.319  0.0722 -0.1763  0.1873
   36sV     BCB  925   0.406  12.118   8.445  0.4242  0.0210  0.3460
   36sV      GO  926   0.264  11.860   8.229 -0.0419  0.3696  0.4096
   37sG      GN  927   0.078  11.929   8.342  0.2974  0.2330 -0.0671
   37sG      GC  928  12.991  11.829   8.295  0.3026 -0.1709 -0.4994
   37sG      GO  929   0.037  11.637   8.396  0.1311  0.2477 -0.0328
   38sG      GN  930  12.835  11.696   8.422  0.2030  0.0217  0.2547
   38sG      GC  931  12.793  11.583   8.479  0.0239  0.1466 -0.1843
   38sG      GO  932  12.570  11.506   8.409  0.0073 -0.3256 -0.0333
   39sV      GN  933  12.740  11.375   8.403 -0.1731 -0.0414  0.1715
   39sV      GC  934  12.674  11.263   8.348 -0.0184  0.2444 -0.1890
   39sV     BCB  935  12.775  11.135   8.342 -0.0045  0.0648  0.0813
   39sV      GO  936  12.445  11.245   8.440  0.0214  0.1414  0.1767
   40sV      GN  937  12.463  11.295   8.208  0.2364 -0.0780  0.0537
   40sV      GC  938  12.331  11.294   8.187  0.0858  0.1860 -0.0517
   40sV     BCB  939  12.249  11.406   8.118 -0.1623 -0.0902  0.0385
   40sV      GO  940  12.281  11.074   8.101 -0.0736  0.0645 -0.1247
    1sD      GN  941   1.118  11.961   8.587  0.0428 -0.0800  0.3836
    1sD      GC  942   1.159  11.811   8.499 -0.0605 -0.2164 -0.1253
    1sD     BCG  943   1.340  11.865   8.327  0.2440 -0.0058  0.0872
    1sD    BOE1  944   1.319  11.808   8.217  0.1758 -0.1469  0.0900
    1sD    BOE2  945   1.458  11.897   8.347 -0.1797  0.1311 -0.1716
    1sD      GO  946   1.158  11.624   8.666 -0.2339  0.2382 -0.1770
    2sA      GN  947   1.071  11.576   8.466 -0.4028 -0.1150 -0.3573
    2sA      GC  948   1.029  11.433   8.499 -0.0159 -0.4135  0.0470
    2sA      GO  949   1.076  11.291   8.318 -0.2355 -0.0211  0.3529
    3sE      GN  950   1.105  11.197   8.511 -0.3469  0.1604 -0.2989
    3sE      GC  951   1.160  11.076   8.469 -0.3915  0.2175  0.1524
    3sE     BCD  952   1.459  11.216   8.638 -0.1568  0.1582  0.1295
    3sE    BOE1  953   1.433  11.259   8.762  0.0586 -0.1421  0.2739
    3sE    BOE2  954   1.592  11.197   8.629 -0.2567  0.2165  0.1778
    3sE      GO  955   1.004  10.893   8.449  0.1397  0.3133  0.0429
    4sF      GN  956   1.081  10.978   8.257  0.0370 -0.0999  0.0825
    4sF      GC  957   0.987  10.912   8.170  0.2305  0.1800 -0.0973
    4sF     BCG  958   0.775  11.048   8.155  0.0393  0.0676  0.4361
    4sF    BCE1  959   0.765  11.273   8.200  0.2959  0.2346  0.1244
    4sF    BCE2  960   0.710  11.215   7.983  0.2194  0.1399  0.1192
    4sF      GO  961   1.097  10.870   7.966 -0.0302  0.6404  0.0921
    5sR      GN  962   0.981  10.694   8.078  0.0748  0.2989  0.0069
    5sR      GC  963   1.021  10.579   7.995  0.1145  0.3142  0.1423
    5sR     BCG  964   1.188  10.453   8.132  0.1220  0.0633 -0.1761
    5sR     BCZ  965   1.098  10.148   8.278  0.0006 -0.1461 -0.1651
    5sR    BNN1  966   1.060  10.260   8.346  0.0102 -0.4049 -0.0748
    5sR    BNN2  967   1.195  10.072   8.298 -0.1191 -0.2134  0.1247
    5sR      GO  968   0.844  10.548   7.844 -0.0618 -0.1793 -0.0843
    6sHe     GN  969   1.053  10.559   7.763  0.1928 -0.2439  0.0913
    6sHe     GC  970   1.024  10.544   7.618  0.4024 -0.0399 -0.2747
    6sHe    BCG  971   0.981  10.764   7.491 -0.0229  0.1733  0.0733
    6sHe    BNE  972   1.077  10.959   7.531 -0.0974  0.1846  0.1346
    6sHe    BND  973   0.960  10.852   7.379 -0.1355 -0.1087  0.7319
    6sHe     GO  974   1.177  10.404   7.524 -0.0666  0.1464  0.0353
    7sD      GN  975   0.977  10.378   7.498 -0.0797  0.1854 -0.0364
    7sD      GC  976   0.983  10.273   7.406 -0.0409  0.1704  0.1658
    7sD     BCG  977   0.779  10.190   7.323  0.2311  0.0112  0.1518
    7sD    BOE1  978   0.700  10.119   7.380  0.0778 -0.4103 -0.0332
    7sD    BOE2  979   0.727  10.275   7.221  0.0419  0.3886 -0.2359
    7sD      GO  980   1.162  10.305   7.255  0.0934 -0.0493 -0.1213
    8sSp     GN  981   1.153  10.124   7.377 -0.0022  0.3305 -0.0272
    8sSp     GC  982   1.277  10.063   7.322 -0.3370  0.0978 -0.3164
    8sSp    BCB  983   1.298   9.917   7.380  0.3670 -0.2880 -0.0704
    8sSp     PX  984   1.503   9.781   7.360 -0.1264 -0.1556  0.2112
    8sSp     GO  985   1.282  10.091   7.078 -0.1950 -0.3594 -0.0351
    9sG      GN  986   1.471  10.179   7.172 -0.1485 -0.3836 -0.4295
    9sG      GC  987   1.532  10.243   7.064  0.2746 -0.1484  0.2014
    9sG      GO  988   1.396  10.430   6.983 -0.0309  0.0765 -0.1563
   10sY      GN  989   1.614  10.462   7.039 -0.1044  0.1925 -0.2095
   10sY      GC  990   1.637  10.590   7.004  0.3890 -0.0277  0.5422
   10sY     BCG  991   1.741  10.789   7.132 -0.3347  0.4754  0.5224
   10sY    BCE2  992   1.778  10.978   7.273 -0.2451 -0.0882  0.0324
   10sY    BCE1  993   1.897  10.762   7.325  0.1232  0.1420 -0.0984
   10sY      GO  994   1.717  10.600   6.771 -0.3100  0.1541 -0.0683
   11sE      GN  995   1.533  10.681   6.796  0.2699 -0.1696 -0.1684
   11sE      GC  996   1.519  10.724   6.659  0.0088  0.0197 -0.0442
   11sE     BCD  997   1.234  10.540   6.520  0.2427  0.2053  0.2088
   11sE    BOE1  998   1.151  10.525   6.591  0.0303 -0.2390 -0.1072
   11sE    BOE2  999   1.222  10.491   6.403 -0.0217  0.1116  0.7529
   11sE      GO 1000   1.587  10.947   6.646  0.1865 -0.0252 -0.1848
   12sV      GN 1001   1.679  10.809   6.509 -0.2809 -0.1514  0.1893
   12sV      GC 1002   1.769  10.902   6.415  0.0618 -0.2600 -0.0371
   12sV     BCB 1003   1.802  10.803   6.317  0.1981  0.3049  0.2576
   12sV      GO 1004   1.652  11.105   6.366  0.1700 -0.1503  0.2104
   13sHe     GN 1005   1.816  11.130   6.508  0.3646  0.3303 -0.1783
   13sHe     GC 1006   1.782  11.264   6.536 -0.0671  0.0160  0.1309
   13sHe    BCG 1007   1.771  11.435   6.329 -0.0910 -0.1172  0.1579
   13sHe    BNE 1008   1.639  11.445   6.132 -0.1974  0.4973  0.3257
   13sHe    BND 1009   1.767  11.563   6.250 -0.3961  0.1477  0.2931
   13sHe     GO 1010   1.605  11.304   6.657  0.2538 -0.1293  0.0357
   14sHe     GN 1011   1.782  11.418   6.703 -0.1654  0.2282 -0.0100
   14sHe     GC 1012   1.718  11.487   6.813 -0.2057 -0.0639 -0.0687
   14sHe    BCG 1013   1.709  11.382   7.025 -0.0187  0.5611 -0.2542
   14sHe    BNE 1014   1.529  11.369   7.166 -0.0802 -0.1317 -0.3958
   14sHe    BND 1015   1.727  11.308   7.148 -0.0749 -0.1660 -0.0646
   14sHe     GO 1016   1.772  11.727   6.835 -0.1866  0.4140 -0.0107
   15sQ      GN 1017   1.571  11.664   6.768 -0.0367  0.2069  0.0017
   15sQ      GC 1018   1.510  11.786   6.735 -0.0925 -0.1740 -0.2362
   15sQ     BCD 1019   1.420  11.689   6.432 -0.0006 -0.4392 -0.0990
   15sQ     BOD 1020   1.418  11.794   6.357  0.2003  0.3126 -0.1292
   15sQ     BND 1021   1.407  11.579   6.367  0.1954  0.1592 -0.0497
   15sQ      GO 1022   1.382  11.865   6.926 -0.5419 -0.1156  0.0994
   16sK      GN 1023   1.502  12.019   6.812  0.0971  0.3459 -0.2229
   16sK      GC 1024   1.478  12.127   6.907 -0.2661  0.1292 -0.2404
   16sK     BCG 1025   1.642  12.284   6.843  0.3540 -0.0813 -0.1725
   16sK     BCE 1026   1.499  12.426   6.693  0.0007 -0.1469 -0.1247
   16sK      GO 1027   1.261  12.153   7.026 -0.1099 -0.4672  0.6415
   17sL      GN 1028   1.430  12.069   7.151 -0.1134 -0.2200 -0.0808
   17sL      GC 1029   1.334  12.035   7.264 -0.4333  0.6611 -0.4529
   17sL     BCG 1030   1.354  11.786   7.312 -0.0146  0.1567  0.2453
   17sL      GO 1031   1.337  12.185   7.447  0.6944  0.0616  0.0047
   18sV      GN 1032   1.136  12.125   7.354 -0.3276 -0.0365 -0.3720
   18sV      GC 1033   1.062  12.202   7.450  0.2397 -0.1647 -0.0640
   18sV     BCB 1034   0.917  12.264   7.431  0.0717  0.4056 -0.0485
   18sV      GO 1035   1.143  12.206   7.692 -0.1485  0.3860  0.1176
   19sF      GN 1036   1.124  11.993   7.616  0.2853  0.1569  0.0483
   19sF      GC 1037   1.170  11.920   7.750 -0.2902  0.2300 -0.0353
   19sF     BCG 1038   0.987  11.852   7.907  0.0625 -0.1229  0.0565
   19sF    BCE1 1039   0.936  11.794   8.134 -0.1466  0.3714 -0.0470
   19sF    BCE2 1040   0.798  11.937   8.031  0.1223  0.2493 -0.2084
   19sF      GO 1041   1.310  11.723   7.695  0.3644  0.1223  0.3026
   20sF      GN 1042   1.410  11.915   7.743 -0.3144  0.2557  0.0143
   20sF      GC 1043   1.549  11.876   7.714  0.0852  0.1529 -0.2479
   20sF     BCG 1044   1.715  12.020   7.845 -0.1321  0.1639  0.6448
   20sF    BCE1 1045   1.889  12.072   8.008  0.2866 -0.0605 -0.1059
   20sF    BCE2 1046   1.958  11.950   7.811 -0.0256 -0.1034  0.0800
   20sF      GO 1047   1.590  11.635   7.783 -0.3894 -0.0719 -0.0366
   21sA      GN 1048   1.644  11.723   7.608 -0.2882  0.2496  0.3761
   21sA      GC 1049   1.702  11.603   7.551 -0.1291 -0.1692 -0.1905
   21sA      GO 1050   1.944  11.617   7.582  0.0722  0.1750  0.0903
   22sE      GN 1051   1.855  11.425   7.645  0.2001  0.0227 -0.4828
   22sE      GC 1052   1.974  11.347   7.672 -0.2989 -0.1180 -0.4218
   22sE     BCD 1053   2.009  11.388   8.036 -0.0272 -0.2598  0.4263
   22sE    BOE1 1054   2.021  11.497   8.088 -0.1508 -0.2369 -0.0663
   22sE    BOE2 1055   1.968  11.291   8.112  0.0150  0.1627 -0.2959
   22sE      GO 1056   2.021  11.210   7.489 -0.2886  0.5766  0.1129
   23sD      GN 1057   2.198  11.295   7.607 -0.0357  0.1050  0.0348
   23sD      GC 1058   2.306  11.233   7.517  0.1397 -0.0674 -0.0526
   23sD     BCG 1059   2.541  11.320   7.537  0.2495 -0.3487 -0.0389
   23sD    BOE1 1060   2.527  11.400   7.426 -0.0483 -0.0021 -0.3699
   23sD    BOE2 1061   2.637  11.392   7.614  0.1532  0.0691  0.3152
   23sD      GO 1062   2.270  11.016   7.437 -0.0856  0.2468 -0.2577
   24sV      GN 1063   2.285  11.040   7.668  0.1789  0.1712  0.0504
   24sV      GC 1064   2.268  10.898   7.704  0.2154 -0.0859  0.1248
   24sV     BCB 1065   2.431  10.844   7.701  0.1889  0.1494 -0.0614
   24sV      GO 1066   2.119  10.869   7.886  0.1469  0.1705  0.0607
   25sG      GN 1067   2.046  10.774   7.687  0.0885  0.0491 -0.2440
   25sG      GC 1068   1.932  10.711   7.754 -0.3430 -0.2836  0.1798
   25sG      GO 1069   1.787  10.890   7.814  0.1959  0.0092 -0.1260
   26sS      GN 1070   1.711  10.714   7.701 -0.0415 -0.2433 -0.2730
   26sS      GC 1071   1.575  10.755   7.683  0.1930 -0.1983 -0.2245
   26sS     BOG 1072   1.520  10.801   7.458  0.0999 -0.2365 -0.1391
   26sS     BPG 1073   1.436  10.782   7.420 -0.0234 -0.1068  0.2313
   26sS      GO 1074   1.431  10.672   7.860  0.1934 -0.1515  0.2677
   27sN      GN 1075   1.468  10.884   7.870 -0.0631  0.0327 -0.2226
   27sN      GC 1076   1.383  10.907   7.998 -0.0137  0.0305  0.2701
   27sN     BCG 1077   1.490  10.802   8.201  0.2284  0.1532  0.2170
   27sN     BND 1078   1.410  10.730   8.312  0.0127 -0.3747 -0.2477
   27sN     BOD 1079   1.529  10.904   8.252 -0.2753 -0.3114 -0.0502
   27sN      GO 1080   1.264  11.125   8.000  0.0228  0.0339 -0.3333
   28sK      GN 1081   1.481  11.133   7.946  0.1106 -0.2565  0.0892
   28sK      GC 1082   1.492  11.270   7.918  0.2277  0.1071 -0.1693
   28sK     BCG 1083   1.503  11.373   8.142 -0.2943  0.1495 -0.2054
   28sK     BCE 1084   1.636  11.504   8.309 -0.1815 -0.1671 -0.2024
   28sK      GO 1085   1.605  11.286   7.703 -0.2225 -0.0773  0.0051
   29sG      GN 1086   1.410  11.399   7.734  0.1198 -0.0878  0.1989
   29sG      GC 1087   1.399  11.439   7.595  0.1973 -0.3156  0.0226
   29sG      GO 1088   1.364  11.224   7.458 -0.1302  0.0613 -0.4040
   30sA      GN 1089   1.226  11.377   7.468 -0.2263 -0.2167  0.2258
   30sA      GC 1090   1.123  11.316   7.383 -0.0534  0.0283 -0.2947
   30sA      GO 1091   1.133  11.417   7.168 -0.0671 -0.0611  0.0358
   31sI      GN 1092   1.120  11.203   7.190 -0.1103  0.1114 -0.1731
   31sI      GC 1093   1.129  11.167   7.043  0.2088  0.1383 -0.0875
   31sI     BCG 1094   1.290  10.958   7.041  0.0466  0.0183  0.0007
   31sI      GO 1095   0.904  11.138   6.945 -0.2445  0.0548 -0.0840
   32sI      GN 1096   1.039  11.286   6.870  0.3167  0.0892  0.3771
   32sI      GC 1097   0.954  11.294   6.760  0.1250 -0.4333  0.1727
   32sI     BCG 1098   1.131  11.433   6.636  0.2907  0.0254 -0.3954
   32sI      GO 1099   0.842  11.085   6.722 -0.1182 -0.3508  0.2068
   33sG      GN 1100   0.701  11.248   6.779 -0.2136  0.6236 -0.1142
   33sG      GC 1101   0.584  11.148   6.826  0.2973  0.0724 -0.0971
   33sG      GO 1102   0.548  10.955   6.697  0.1119  0.0643 -0.0769
   34sL      GN 1103   0.639  10.918   6.909 -0.0777 -0.0953  0.1833
   34sL      GC 1104   0.644  10.780   6.909  0.0748  0.0228  0.1979
   34sL     BCG 1105   0.880  10.694   6.941  0.5438  0.0003 -0.3113
   34sL      GO 1106   0.452  10.673   7.037  0.0513 -0.2972  0.2612
   35sM      GN 1107   0.546  10.842   7.137 -0.2743  0.2682 -0.1635
   35sM      GC 1108   0.446  10.850   7.254 -0.2714  0.2413  0.0155
   35sM     BSD 1109   0.552  10.620   7.542  0.2359 -0.2136  0.3042
   35sM      GO 1110   0.405  11.076   7.315  0.3720  0.0651  0.3439
   36sV      GN 1111   0.614  11.013   7.364  0.8122  0.2141 -0.4875
   36sV      GC 1112   0.637  11.135   7.443 -0.0361  0.3340  0.1376
   36sV     BCB 1113   0.675  11.077   7.594 -0.0455 -0.5527 -0.0191
   36sV      GO 1114   0.782  11.282   7.327  0.3383 -0.1341 -0.1994
   37sG      GN 1115   0.561  11.342   7.344  0.0798  0.0487 -0.0699
   37sG      GC 1116   0.568  11.454   7.259 -0.1266  0.0431  0.0826
   37sG      GO 1117   0.608  11.387   7.039 -0.3113  0.3158 -0.2858
   38sG      GN 1118   0.468  11.562   7.070 -0.0840 -0.1351  0.0848
   38sG      GC 1119   0.447  11.585   6.926  0.1225 -0.2656  0.1698
   38sG      GO 1120   0.428  11.822   6.886  0.0581  0.0765 -0.0523
   39sV      GN 1121   0.604  11.704   6.786  0.1367 -0.0684  0.0534
   39sV      GC 1122   0.673  11.833   6.712  0.3366 -0.0115 -0.1362
   39sV     BCB 1123   0.816  11.808   6.746 -0.2642  0.3236  0.0125
   39sV      GO 1124   0.592  11.855   6.471 -0.1734  0.4699  0.0020
   40sV      GN 1125   0.549  12.028   6.592 -0.0110 -0.2330  0.0933
   40sV      GC 1126   0.481  12.097   6.487 -0.1811 -0.2349  0.0639
   40sV     BCB 1127   0.356  12.158   6.562  0.0628 -0.1005 -0.1061
   40sV      GO 1128   0.629  12.263   6.365  0.0117  0.4384 -0.4178
    1sD      GN 1129   9.975  12.882   7.206  0.4128  0.1752 -0.0774
    1sD      GC 1130   9.919   0.014   7.121 -0.2793 -0.2741 -0.0303
    1sD     BCG 1131   9.767   0.183   7.224 -0.2141 -0.0888 -0.0646
    1sD    BOE1 1132   9.814   0.245   7.329  0.1366 -0.0655  0.2272
    1sD    BOE2 1133   9.640   0.149   7.220 -0.2410  0.0791  0.0006
    1sD      GO 1134  10.108   0.107   6.999 -0.1884 -0.1748  0.3591
    2sA      GN 1135   9.917   0.102   6.881  0.4820  0.0073 -0.1083
    2sA      GC 1136   9.961   0.156   6.752 -0.2607 -0.0163  0.3484
    2sA      GO 1137   9.812   0.326   6.668  0.3591 -0.2551  0.0352
    3sE      GN 1138  10.019   0.358   6.684 -0.0927 -0.3245 -0.1351
    3sE      GC 1139  10.008   0.508   6.656  0.3000  0.0206  0.1526
    3sE     BCD 1140  10.304   0.679   6.763 -0.3404  0.1084 -0.1348
    3sE    BOE1 1141  10.291   0.782   6.822 -0.0442 -0.0324 -0.1210
    3sE    BOE2 1142  10.411   0.632   6.704  0.0797  0.1085 -0.3661
    3sE      GO 1143   9.825   0.557   6.476 -0.2254 -0.2010 -0.1902
    4sF      GN 1144   9.762   0.625   6.660 -0.5469  0.0551 -0.0339
    4sF      GC 1145   9.654   0.686   6.614  0.0423 -0.3461  0.0103
    4sF     BCG 1146   9.541   0.848   6.770 -0.2532 -0.1293 -0.1021
    4sF    BCE1 1147   9.329   0.919   6.862 -0.3573 -0.2912  0.2030
    4sF    BCE2 1148   9.500   1.090   6.780  0.0830 -0.0149  0.4460
    4sF      GO 1149   9.693   0.812   6.405 -0.1873 -0.2750  0.0340
    5sR      GN 1150   9.531   0.648   6.388  0.2015 -0.2220 -0.3393
    5sR      GC 1151   9.503   0.677   6.242  0.0317  0.3201 -0.1144
    5sR     BCG 1152   9.334   0.498   6.153 -0.3121  0.3307 -0.0231
    5sR     BCZ 1153   9.511   0.199   6.203 -0.0515  0.5220  0.2394
    5sR    BNN1 1154   9.634   0.150   6.254  0.1702  0.1829  0.3225
    5sR    BNN2 1155   9.482   0.134   6.084 -0.1001 -0.2561  0.0508
    5sR      GO 1156   9.521   0.908   6.221 -0.2280  0.0473  0.4406
    6sHe     GN 1157   9.649   0.785   6.078 -0.2423 -0.2202 -0.1651
    6sHe     GC 1158   9.734   0.898   6.024  0.1669 -0.3743  0.1698
    6sHe    BCG 1159   9.976   0.875   5.977 -0.1378 -0.0349  0.0628
    6sHe    BNE 1160  10.142   0.963   5.834 -0.1040  0.1908 -0.0640
    6sHe    BND 1161  10.092   0.895   6.026 -0.1280 -0.0538 -0.0361
    6sHe     GO 1162   9.634   1.003   5.834  0.1701 -0.1955 -0.0812
    7sD      GN 1163   9.757   1.133   5.969  0.0419 -0.2137  0.1096
    7sD      GC 1164   9.724   1.257   5.891 -0.2813 -0.3465 -0.1804
    7sD     BCG 1165   9.611   1.427   6.018  0.2535  0.2625 -0.0046
    7sD    BOE1 1166   9.498   1.480   5.991 -0.2183  0.2172  0.2936
    7sD    BOE2 1167   9.704   1.522   6.036 -0.1115 -0.0002 -0.1248
    7sD      GO 1168   9.927   1.297   5.755  0.4359  0.2140  0.0009
    8sSp     GN 1169   9.736   1.220   5.646  0.0581 -0.2784 -0.3746
    8sSp     GC 1170   9.784   1.220   5.501 -0.0292  0.3519  0.0885
    8sSp    BCB 1171   9.642   1.202   5.409  0.3293  0.2651 -0.2660
    8sSp     PX 1172   9.611   0.996   5.276 -0.1252  0.2030  0.4630
    8sSp     GO 1173   9.905   1.400   5.454 -0.5787 -0.1861  0.0510
    9sG      GN 1174  10.001   1.194   5.467 -0.3137  0.5434  0.0640
    9sG      GC 1175  10.136   1.230   5.441 -0.1970 -0.0022 -0.1495
    9sG      GO 1176  10.247   1.076   5.281  0.1760  0.2179  0.0581
   10sY      GN 1177  10.287   1.301   5.270 -0.0611 -0.2653 -0.1515
   10sY      GC 1178  10.366   1.303   5.147 -0.3799  0.0454 -0.0799
   10sY     BCG 1179  10.527   1.491   5.121 -0.2145  0.0083 -0.1146
   10sY    BCE2 1180  10.620   1.717   5.061  0.1926  0.5511  0.4248
   10sY    BCE1 1181  10.730   1.578   5.225  0.1625 -0.1117  0.1557
   10sY      GO 1182  10.516   1.123   5.123  0.1416  0.2885  0.3076
   11sE      GN 1183  10.355   1.149   4.983 -0.0627 -0.2236  0.2679
   11sE      GC 1184  10.387   1.036   4.896  0.0549 -0.1003  0.2699
   11sE     BCD 1185  10.032   1.012   4.754  0.3313  0.1023 -0.1566
   11sE    BOE1 1186  10.004   1.126   4.701 -0.1171  0.1800  0.0486
   11sE    BOE2 1187  10.092   0.942   4.675 -0.0912  0.5245 -0.0668
   11sE      GO 1188  10.627   1.024   4.855  0.1647 -0.0894 -0.1551
   12sV      GN 1189  10.501   0.847   4.929 -0.5297 -0.0101  0.2648
   12sV      GC 1190  10.629   0.751   4.917  0.2333  0.2115 -0.0668
   12sV     BCB 1191  10.564   0.610   4.970 -0.4716  0.3032 -0.1584
   12sV      GO 1192  10.768   0.788   4.715  0.1365 -0.0407  0.3330
   13sHe     GN 1193  10.869   0.830   4.896  0.0058 -0.2992  0.0588
   13sHe     GC 1194  11.003   0.836   4.847  0.4144 -0.4559 -0.1528
   13sHe    BCG 1195  11.117   0.644   4.800  0.1512 -0.2459 -0.5756
   13sHe    BNE 1196  11.270   0.522   4.916  0.0187 -0.5076  0.2175
   13sHe    BND 1197  11.201   0.582   4.733 -0.5154  0.1277  0.3504
   13sHe     GO 1198  11.051   1.028   4.717 -0.0043 -0.2620  0.1710
   14sHe     GN 1199  11.074   1.044   4.942  0.0804  0.1406  0.1899
   14sHe     GC 1200  11.128   1.187   4.936  0.1243 -0.0920  0.1775
   14sHe    BCG 1201  10.984   1.392   4.916  0.3257  0.5020  0.0420
   14sHe    BNE 1202  10.780   1.388   4.835 -0.1224 -0.1973 -0.1663
   14sHe    BND 1203  10.928   1.507   4.935  0.1070  0.1490  0.0846
   14sHe     GO 1204  11.309   1.222   5.102 -0.2752  0.1117 -0.2358
   15sQ      GN 1205  11.331   1.319   4.914 -0.0635  0.0470  0.0360
   15sQ      GC 1206  11.481   1.360   4.946  0.0622 -1.0696  0.3388
   15sQ     BCD 1207  11.541   1.509   4.640  0.3455  0.0911  0.3353
   15sQ     BOD 1208  11.431   1.498   4.555 -0.2758 -0.2353  0.0559
   15sQ     BND 1209  11.589   1.625   4.670 -0.0151 -0.0528  0.0983
   15sQ      GO 1210  11.503   1.437   5.168  0.2203  0.0740 -0.1408
   16sK      GN 1211  11.666   1.316   5.067  0.1745 -0.1670  0.1582
   16sK      GC 1212  11.747   1.312   5.172 -0.3537 -0.4138 -0.1986
   16sK     BCG 1213  11.663   1.125   5.288  0.0318  0.1683 -0.0435
   16sK     BCE 1214  11.793   1.085   5.480 -0.3488  0.3387 -0.0029
   16sK      GO 1215  11.985   1.338   5.101  0.3519 -0.2610  0.2524
   17sL      GN 1216  11.919   1.504   5.246 -0.3704  0.2936 -0.0443
   17sL      GC 1217  12.048   1.556   5.242  0.3246  0.0052 -0.3920
   17sL     BCG 1218  12.048   1.774   5.365 -0.2005  0.0398  0.0557
   17sL      GO 1219  12.222   1.390   5.234  0.0482  0.3767 -0.2432
   18sV      GN 1220  12.224   1.564   5.082  0.1901  0.0485  0.2857
   18sV      GC 1221  12.336   1.509   5.005 -0.0957  0.4190 -0.0024
   18sV     BCB 1222  12.386   1.534   4.865 -0.4517 -0.3694  0.0883
   18sV      GO 1223  12.512   1.405   5.153  0.1077 -0.3619 -0.0261
   19sF      GN 1224  12.446   1.606   5.231 -0.0184  0.1725 -0.0025
   19sF      GC 1225  12.540   1.609   5.336  0.0924  0.0033  0.4854
   19sF     BCG 1226  12.742   1.733   5.259 -0.3211 -0.0242 -0.0580
   19sF    BCE1 1227  12.794   1.967   5.306 -0.2172 -0.2000 -0.2257
   19sF    BCE2 1228  12.974   1.794   5.309  0.3565 -0.1704 -0.0785
   19sF      GO 1229  12.439   1.680   5.537 -0.4254  0.5912  0.1048
   20sF      GN 1230  12.548   1.454   5.520  0.4070 -0.6217  0.0306
   20sF      GC 1231  12.515   1.422   5.661  0.0683  0.4321  0.1757
   20sF     BCG 1232  12.289   1.356   5.757  0.0420  0.0938  0.2490
   20sF    BCE1 1233  12.064   1.465   5.776 -0.3141  0.0679  0.1100
   20sF    BCE2 1234  12.119   1.302   5.607  0.0482 -0.1499  0.3399
   20sF      GO 1235  12.673   1.276   5.768 -0.0452  0.1658  0.0441
   21sA      GN 1236  12.602   1.477   5.888 -0.2200  0.1328  0.1299
   21sA      GC 1237  12.682   1.465   6.010 -0.5360 -0.1386 -0.0846
   21sA      GO 1238  12.563   1.352   6.195  0.2440 -0.0555  0.4205
   22sE      GN 1239  12.477   1.548   6.128  0.0726 -0.2790 -0.0470
   22sE      GC 1240  12.360   1.536   6.211 -0.0815  0.4600 -0.1263
   22sE     BCD 1241  12.521   1.552   6.541  0.0016 -0.2497  0.2754
   22sE    BOE1 1242  12.446   1.484   6.590 -0.0643  0.0536  0.0440
   22sE    BOE2 1243  12.603   1.645   6.572  0.0418  0.2938 -0.1395
   22sE      GO 1244  12.182   1.620   6.103  0.1440 -0.0394 -0.0353
   23sD      GN 1245  12.184   1.407   6.188 -0.0854 -0.2665 -0.1941
   23sD      GC 1246  12.052   1.354   6.125 -0.3744  0.1364 -0.3401
   23sD     BCG 1247  12.014   1.127   6.170  0.1550 -0.1112  0.1195
   23sD    BOE1 1248  11.954   1.066   6.257  0.2366  0.2369  0.0631
   23sD    BOE2 1249  12.038   1.102   6.045  0.1951 -0.1770 -0.1275
   23sD      GO 1250  11.880   1.524   6.124  0.0474  0.1338  0.0421
   24sV      GN 1251  11.976   1.485   6.336 -0.1458 -0.1487  0.0103
   24sV      GC 1252  11.887   1.563   6.411 -0.1885 -0.0342 -0.1237
   24sV     BCB 1253  11.849   1.472   6.552  0.0046  0.0007  0.1462
   24sV      GO 1254  11.979   1.785   6.458  0.0414  0.1184  0.0004
   25sG      GN 1255  11.840   1.779   6.276  0.1565  0.0190  0.1228
   25sG      GC 1256  11.827   1.919   6.267 -0.2014 -0.2046  0.1450
   25sG      GO 1257  12.042   2.007   6.186  0.0292  0.1075  0.2340
   26sS      GN 1258  11.855   2.024   6.048  0.3532  0.1599 -0.0905
   26sS      GC 1259  11.924   2.078   5.929 -0.0321 -0.1292 -0.0971
   26sS     BOG 1260  11.893   1.888   5.782  0.1091  0.2404  0.2003
   26sS     BPG 1261  11.809   1.854   5.719 -0.0905  0.3777 -0.1458
   26sS      GO 1262  11.899   2.311   5.935  0.0049 -0.4014 -0.0261
   27sN      GN 1263  12.111   2.220   5.969  0.0631 -0.2246 -0.1397
   27sN      GC 1264  12.187   2.359   5.976 -0.2075  0.0648 -0.0745
   27sN     BCG 1265  12.294   2.394   6.180 -0.1452  0.0144  0.1919
   27sN     BND 1266  12.314   2.528   6.188 -0.0624 -0.0879 -0.1313
   27sN     BOD 1267  12.333   2.311   6.253 -0.0282  0.0765  0.3730
   27sN      GO 1268  12.278   2.418   5.767  0.1776  0.0199  0.0081
   28sK      GN 1269  12.365   2.222   5.840  0.0988 -0.2347  0.3647
   28sK      GC 1270  12.446   2.191   5.721  0.0207 -0.6803 -0.1444
   28sK     BCG 1271  12.689   2.169   5.767 -0.0431  0.2379 -0.3736
   28sK     BCE 1272  12.925   2.099   5.733 -0.1211  0.0118  0.0979
   28sK      GO 1273  12.322   2.060   5.560  0.0035  0.1600  0.0632
   29sG      GN 1274  12.393   2.246   5.484 -0.0039 -0.1275  0.0095
   29sG      GC 1275  12.342   2.244   5.353  0.1195  0.1015  0.4315
   29sG      GO 1276  12.513   2.161   5.204  0.1246  0.2550  0.5275
   30sA      GN 1277  12.315   2.068   5.228  0.2264 -0.2947 -0.1174
   30sA      GC 1278  12.308   1.977   5.115 -0.2493  0.0575 -0.1690
   30sA      GO 1279  12.094   1.966   5.016 -0.4045 -0.2313  0.0932
   31sI      GN 1280  12.285   2.034   4.901  0.2443  0.4438  0.3172
   31sI      GC 1281  12.221   2.067   4.785 -0.2486  0.1067  0.2997
   31sI     BCG 1282  12.225   2.334   4.760 -0.2715 -0.0467 -0.2330
   31sI      GO 1283  12.252   1.877   4.645  0.0328 -0.1466 -0.1061
   32sI      GN 1284  12.042   1.944   4.686 -0.2480 -0.0209  0.1876
   32sI      GC 1285  11.984   1.838   4.613  0.3662 -0.3000 -0.1207
   32sI     BCG 1286  11.977   1.618   4.739 -0.1390  0.4232  0.0277
   32sI      GO 1287  11.760   1.917   4.514 -0.6664 -0.1509  0.1370
   33sG      GN 1288  11.934   1.833   4.381  0.3075  0.4562  0.0268
   33sG      GC 1289  11.874   1.842   4.260  0.3938 -0.1648  0.2249
   33sG      GO 1290  11.637   1.796   4.248 -0.2741  0.2327  0.2851
   34sL      GN 1291  11.715   2.010   4.208 -0.6611  0.3864 -0.0961
   34sL      GC 1292  11.575   2.067   4.181  0.4804  0.0864  0.4021
   34sL     BCG 1293  11.619   2.306   4.159  0.0702  0.4477 -0.0631
   34sL      GO 1294  11.425   1.912   4.041 -0.1068 -0.0413  0.2586
   35sM      GN 1295  11.639   1.923   3.966  0.4853 -0.1778  0.1456
   35sM      GC 1296  11.610   1.837   3.851  0.0878 -0.1903 -0.2438
   35sM     BSD 1297  11.790   2.024   3.593 -0.1571 -0.0939  0.1328
   35sM      GO 1298  11.670   1.619   3.891  0.1201  0.2504  0.0038
   36sV      GN 1299  11.856   1.760   3.876  0.1236  0.0375 -0.1787
   36sV      GC 1300  11.953   1.659   3.891 -0.4659  0.2161  0.0240
   36sV     BCB 1301  12.046   1.687   3.750  0.2621 -0.0665  0.1538
   36sV      GO 1302  12.038   1.631   4.119 -0.2134  0.2571  0.1803
   37sG      GN 1303  11.980   1.433   4.036 -0.1884  0.0814 -0.1342
   37sG      GC 1304  12.012   1.355   4.151 -0.4415 -0.0552  0.0031
   37sG      GO 1305  11.863   1.410   4.324 -0.0318 -0.2068 -0.7273
   38sG      GN 1306  11.906   1.195   4.305  0.0902  0.0003 -0.0234
   38sG      GC 1307  11.840   1.155   4.412  0.0178 -0.1480 -0.1333
   38sG      GO 1308  11.957   0.955   4.488  0.1458 -0.4867  0.0144
   39sV      GN 1309  11.934   1.144   4.611  0.5110 -0.2118 -0.1380
   39sV      GC 1310  12.004   1.108   4.738  0.3939 -0.4095  0.4629
   39sV     BCB 1311  12.147   1.164   4.748 -0.0140 -0.1049 -0.1952
   39sV      GO 1312  11.882   1.186   4.924 -0.1637 -0.0309 -0.3048
   40sV      GN 1313  11.851   0.967   4.871  0.0075  0.0775 -0.6475
   40sV      GC 1314  11.779   0.922   4.988  0.0985  0.0116  0.1069
   40sV     BCB 1315  11.641   0.852   4.941 -0.4779 -0.0177 -0.2591
   40sV      GO 1316  11.911   0.819   5.154 -0.2690  0.0677 -0.3083
    1sD      GN 1317  11.615   1.929   5.283  0.1129  0.2807  0.1424
    1sD      GC 1318  11.477   1.897   5.218  0.0234 -0.3641  0.1492
    1sD     BCG 1319  11.453   2.011   4.993 -0.1408  0.0959 -0.3573
    1sD    BOE1 1320  11.384   2.114   5.007 -0.0609 -0.1926  0.0988
    1sD    BOE2 1321  11.424   1.934   4.902 -0.2380  0.0158 -0.1009
    1sD      GO 1322  11.405   1.675   5.269  0.1442 -0.3001  0.2249
    2sA      GN 1323  11.219   1.827   5.271  0.0905 -0.1451  0.1041
    2sA      GC 1324  11.121   1.734   5.326  0.1870  0.0459 -0.2044
    2sA      GO 1325  11.166   1.513   5.249  0.0139 -0.0914  0.0814
    3sE      GN 1326  11.199   1.551   5.467  0.0532 -0.2448 -0.3103
    3sE      GC 1327  11.220   1.405   5.514 -0.0521 -0.5588 -0.1446
    3sE     BCD 1328  11.563   1.436   5.622 -0.0788 -0.2185 -0.2057
    3sE    BOE1 1329  11.637   1.521   5.558 -0.1623 -0.0093 -0.0821
    3sE    BOE2 1330  11.627   1.377   5.708 -0.1357  0.3595 -0.1830
    3sE      GO 1331  11.014   1.315   5.616  0.0120 -0.1831  0.3982
    4sF      GN 1332  11.118   1.198   5.459  0.0443  0.1000  0.3641
    4sF      GC 1333  11.033   1.079   5.456  0.2851  0.0095  0.1295
    4sF     BCG 1334  11.131   0.872   5.348 -0.0499 -0.0773  0.2501
    4sF    BCE1 1335  11.296   0.825   5.166 -0.1069 -0.0120 -0.3397
    4sF    BCE2 1336  11.315   0.697   5.365 -0.0469  0.2099  0.3043
    4sF      GO 1337  10.961   1.008   5.665  0.2860  0.1509  0.0351
    5sR      GN 1338  10.802   1.064   5.509 -0.3353 -0.1091 -0.1159
    5sR      GC 1339  10.692   1.026   5.592  0.0260  0.1684 -0.0762
    5sR     BCG 1340  10.559   1.202   5.655  0.3806 -0.0922 -0.0388
    5sR     BCZ 1341  10.679   1.423   5.906 -0.0261  0.0973 -0.0733
    5sR    BNN1 1342  10.759   1.324   5.946  0.1366 -0.2304 -0.1369
    5sR    BNN2 1343  10.569   1.419   5.852  0.4261 -0.2781  0.1476
    5sR      GO 1344  10.615   0.800   5.525  0.1267  0.1281 -0.1502
    6sHe     GN 1345  10.689   0.815   5.752  0.0679 -0.0414  0.0084
    6sHe     GC 1346  10.655   0.680   5.787  0.1978  0.1164  0.3586
    6sHe    BCG 1347  10.807   0.576   5.914 -0.2286  0.1087 -0.0510
    6sHe    BNE 1348  10.984   0.606   6.031 -0.3592  0.0352 -0.1661
    6sHe    BND 1349  10.866   0.448   5.951  0.1175 -0.2034  0.3407
    6sHe     GO 1350  10.434   0.676   5.875  0.0710 -0.1661  0.0014
    7sD      GN 1351  10.487   0.547   5.723 -0.1388  0.3885 -0.2917
    7sD      GC 1352  10.365   0.457   5.739 -0.0999 -0.2147 -0.1075
    7sD     BCG 1353  10.333   0.271   5.576  0.0068  0.4034  0.2962
    7sD    BOE1 1354  10.234   0.194   5.519 -0.1960  0.0405 -0.1589
    7sD    BOE2 1355  10.440   0.255   5.509  0.2355  0.0415  0.2515
    7sD      GO 1356  10.322   0.433   5.972  0.1238 -0.0283  0.0278
    8sSp     GN 1357  10.150   0.489   5.840 -0.1029  0.4654 -0.0566
    8sSp     GC 1358  10.038   0.474   5.936 -0.6673 -0.0468 -0.3164
    8sSp    BCB 1359   9.911   0.513   5.854 -0.0277  0.1508  0.1692
    8sSp     PX 1360   9.721   0.350   5.849 -0.1169 -0.2768 -0.0761
    8sSp     GO 1361  10.104   0.279   6.080 -0.0681 -0.0762  0.1492
    9sG      GN 1362  10.073   0.476   6.191 -0.2569 -0.0775 -0.1871
    9sG      GC 1363  10.119   0.419   6.319 -0.0549 -0.0802 -0.3896
    9sG      GO 1364  10.047   0.184   6.342 -0.3328 -0.1135  0.0777
   10sY      GN 1365  10.262   0.248   6.391 -0.0892  0.2902  0.0543
   10sY      GC 1366  10.314   0.119   6.417 -0.2814 -0.1520  0.1815
   10sY     BCG 1367  10.412   0.027   6.203 -0.0937 -0.0800  0.4375
   10sY    BCE2 1368  10.332  12.989   5.970  0.1389  0.2437 -0.0836
   10sY    BCE1 1369  10.556   0.113   5.999  0.1676  0.0118  0.1032
   10sY      GO 1370  10.457   0.138   6.588 -0.1572  0.0946  0.1725
   11sE      GN 1371  10.340  12.963   6.600  0.0325 -0.0617  0.1630
   11sE      GC 1372  10.418  12.921   6.727  0.1784 -0.1101 -0.0947
   11sE     BCD 1373  10.189  12.651   6.835 -0.1462  0.1108  0.1953
   11sE    BOE1 1374  10.066  12.648   6.806 -0.1261 -0.0397  0.5410
   11sE    BOE2 1375  10.211  12.710   6.934  0.0586 -0.3476  0.0871
   11sE      GO 1376  10.642  12.963   6.712 -0.1011 -0.2565 -0.1832
   12sV      GN 1377  10.547   0.007   6.919 -0.1747 -0.4409 -0.1075
   12sV      GC 1378  10.665   0.052   6.996  0.3174 -0.2041  0.4472
   12sV     BCB 1379  10.579   0.040   7.124  0.0065 -0.0510 -0.3052
   12sV      GO 1380  10.854  12.929   6.920  0.1609  0.0412 -0.2493
   13sHe     GN 1381  10.858   0.154   6.853  0.0096  0.1224 -0.1127
   13sHe     GC 1382  10.984   0.158   6.780  0.2295  0.2726  0.0665
   13sHe    BCG 1383  11.184   0.166   6.914 -0.0145 -0.1775  0.2492
   13sHe    BNE 1384  11.341   0.316   6.957  0.2196  0.0093  0.0637
   13sHe    BND 1385  11.306   0.116   6.980  0.2249 -0.0501  0.1046
   13sHe     GO 1386  10.959   0.026   6.577 -0.1974 -0.1765  0.2308
   14sHe     GN 1387  11.009   0.249   6.582  0.2735 -0.5428  0.1098
   14sHe     GC 1388  11.013   0.267   6.442  0.0413 -0.1367 -0.0985
   14sHe    BCG 1389  10.784   0.287   6.357 -0.3414  0.1373  0.1777
   14sHe    BNE 1390  10.688   0.486   6.307  0.2371  0.0244 -0.1749
   14sHe    BND 1391  10.708   0.284   6.255 -0.1059 -0.0065  0.2387
   14sHe     GO 1392  11.195   0.435   6.410 -0.4296  0.1297  0.4654
   15sQ      GN 1393  11.244   0.223   6.333  0.3062 -0.1133  0.0147
   15sQ      GC 1394  11.370   0.240   6.279 -0.1899 -0.5005 -0.1993
   15sQ     BCD 1395  11.496   0.027   6.526 -0.3368  0.2608  0.0090
   15sQ     BOD 1396  11.603  12.967   6.542  0.0925 -0.0204  0.2661
   15sQ     BND 1397  11.388   0.029   6.602  0.3913  0.2018  0.0129
   15sQ      GO 1398  11.352   0.258   6.056  0.0872 -0.0647  0.1259
   16sK      GN 1399  11.477   0.400   6.168 -0.1478 -0.0342 -0.0214
   16sK      GC 1400  11.509   0.462   6.051 -0.0872 -0.0980  0.0625
   16sK     BCG 1401  11.668   0.641   6.135  0.0221  0.2168  0.2016
   16sK     BCE 1402  11.902   0.628   6.022 -0.0649  0.0896  0.0713
   16sK      GO 1403  11.543   0.281   5.906 -0.1548 -0.1476  0.7306
   17sL      GN 1404  11.406   0.455   5.861 -0.0783 -0.0986  0.1657
   17sL      GC 1405  11.332   0.404   5.740 -0.2424 -0.0381  0.1416
   17sL     BCG 1406  11.177   0.591   5.682 -0.4654 -0.0126 -0.1988
   17sL      GO 1407  11.488   0.290   5.582 -0.0446 -0.1382 -0.1097
   18sV      GN 1408  11.342   0.175   5.707 -0.2531  0.1612 -0.0632
   18sV      GC 1409  11.387   0.035   5.656  0.5155  0.0239  0.1924
   18sV     BCB 1410  11.291  12.928   5.720  0.1390  0.0796 -0.0766
   18sV      GO 1411  11.423   0.037   5.400  0.3633  0.0638 -0.2000
   19sF      GN 1412  11.227   0.164   5.443  0.0509  0.0561 -0.0316
   19sF      GC 1413  11.187   0.195   5.303 -0.2555 -0.0916 -0.2559
   19sF     BCG 1414  11.022   0.377   5.298  0.0732 -0.0042 -0.1911
   19sF    BCE1 1415  10.914   0.575   5.382  0.3447 -0.1943  0.0621
   19sF    BCE2 1416  11.020   0.565   5.165  0.4008  0.1489  0.1459
   19sF      GO 1417  11.385   0.251   5.170  0.0612 -0.2918 -0.1586
   20sF      GN 1418  11.254   0.079   5.109  0.1926  0.0380 -0.3314
   20sF      GC 1419  11.322   0.037   5.000  0.3373 -0.1209  0.2105
   20sF     BCG 1420  11.524  12.888   4.989  0.2735  0.2793 -0.1671
   20sF    BCE1 1421  11.604  12.653   5.036 -0.2844  0.0977  0.4747
   20sF    BCE2 1422  11.646  12.841   5.182 -0.0601 -0.3698 -0.0146
   20sF      GO 1423  11.171  12.984   4.841  0.2461  0.0155 -0.1389
   21sA      GN 1424  11.339   0.133   4.799  0.0963  0.1150  0.0068
   21sA      GC 1425  11.295   0.165   4.671 -0.0478  0.0477  0.2888
   21sA      GO 1426  11.497   0.195   4.516  0.2033  0.2251  0.0658
   22sE      GN 1427  11.324   0.081   4.428  0.2167  0.3836  0.0735
   22sE      GC 1428  11.362   0.079   4.298 -0.2128 -0.0082  0.2881
   22sE     BCD 1429  11.388  12.717   4.278  0.2426  0.1960 -0.2842
   22sE    BOE1 1430  11.417  12.695   4.418 -0.0664 -0.2057 -0.0806
   22sE    BOE2 1431  11.465  12.648   4.206 -0.0876 -0.1810  0.0839
   22sE      GO 1432  11.245   0.248   4.174 -0.1560 -0.0525  0.2989
   23sD      GN 1433  11.472   0.204   4.120  0.0164 -0.1098  0.1294
   23sD      GC 1434  11.468   0.289   3.998 -0.0639 -0.4174  0.2457
   23sD     BCG 1435  11.704   0.330   3.902  0.0260  0.4393  0.1001
   23sD    BOE1 1436  11.769   0.431   3.902  0.2442 -0.0390 -0.4536
   23sD    BOE2 1437  11.738   0.210   3.842  0.1435 -0.0934  0.2441
   23sD      GO 1438  11.267   0.263   3.862  0.0743 -0.1614  0.1598
   24sV      GN 1439  11.343   0.068   3.913 -0.0999 -0.0920  0.5675
   24sV      GC 1440  11.246  12.994   3.817  0.0764 -0.1038  0.2111
   24sV     BCB 1441  11.360  12.924   3.751  0.1700  0.1275 -0.3038
   24sV      GO 1442  11.067  12.918   3.943  0.0309 -0.3418  0.2427
   25sG      GN 1443  10.990   0.042   3.777  0.1592 -0.0091  0.2001
   25sG      GC 1444  10.849   0.047   3.828  0.2504  0.2772  0.0788
   25sG      GO 1445  10.843   0.178   4.028 -0.0040 -0.3998  0.0579
   26sS      GN 1446  10.655   0.218   3.895 -0.4042 -0.0103  0.2041
   26sS      GC 1447  10.607   0.307   3.985  0.0402  0.1735 -0.2244
   26sS     BOG 1448  10.414   0.394   3.900  0.1748 -0.2667  0.0317
   26sS     BPG 1449  10.405   0.441   3.808  0.1238  0.1463 -0.5395
   26sS      GO 1450  10.642   0.218   4.221  0.0922  0.0876  0.0520
   27sN      GN 1451  10.703   0.430   4.175 -0.0751 -0.1409  0.0583
   27sN      GC 1452  10.761   0.450   4.306  0.2864  0.1977 -0.2776
   27sN     BCG 1453  10.874   0.657   4.354 -0.0616  0.1944 -0.3833
   27sN     BND 1454  10.831   0.775   4.288 -0.0452  0.3136 -0.2345
   27sN     BOD 1455  10.973   0.656   4.426  0.6787 -0.3194  0.2185
   27sN      GO 1456  10.616   0.345   4.481 -0.8552 -0.0643 -0.0135
   28sK      GN 1457  10.844   0.289   4.474 -0.1543  0.0100 -0.1615
   28sK      GC 1458  10.831   0.181   4.595 -0.1271 -0.1005  0.4345
   28sK     BCG 1459  10.770  12.967   4.516  0.0342  0.1794  0.1645
   28sK     BCE 1460  10.888  12.830   4.342 -0.0377  0.0331  0.2878
   28sK      GO 1461  11.016   0.215   4.759  0.3204  0.2323 -0.1065
   29sG      GN 1462  10.792   0.251   4.835  0.1642 -0.1886  0.0605
   29sG      GC 1463  10.822   0.269   4.968  0.0587 -0.0305  0.2290
   29sG      GO 1464  10.649   0.154   5.096  0.1681 -0.0460  0.1696
   30sA      GN 1465  10.859   0.080   5.099  0.0046  0.1589  0.0204
   30sA      GC 1466  10.825  12.994   5.212  0.1492  0.3535 -0.0035
   30sA      GO 1467  10.997  12.956   5.371 -0.0771  0.0102  0.2125
   31sI      GN 1468  10.781  12.959   5.449  0.4325 -0.1126  0.2586
   31sI      GC 1469  10.813  12.963   5.592 -0.1497  0.0244 -0.1796
   31sI     BCG 1470  10.883   0.214   5.631 -0.3892  0.2835 -0.0828
   31sI      GO 1471  10.677  12.814   5.715  0.3480 -0.2544 -0.3404
   32sI      GN 1472  10.889  12.773   5.658 -0.0857  0.0820  0.1353
   32sI      GC 1473  10.902  12.644   5.701 -0.0479 -0.0161 -0.0620
   32sI     BCG 1474  10.978  12.496   5.523 -0.2021  0.0598  0.0805
   32sI      GO 1475  11.004  12.642   5.928  0.0908  0.1712  0.3330
   33sG      GN 1476  10.810  12.517   5.905  0.2668 -0.4531 -0.2304
   33sG      GC 1477  10.803  12.459   6.057  0.0272  0.1825 -0.0120
   33sG      GO 1478  10.873  12.237   6.057 -0.4271  0.0572  0.0289
   34sL      GN 1479  11.000  12.406   6.133 -0.3220 -0.1684 -0.0361
   34sL      GC 1480  11.123  12.343   6.161 -0.0512  0.0919 -0.2598
   34sL     BCG 1481  11.229  12.249   5.958  0.2012 -0.1693 -0.0402
   34sL      GO 1482  11.226  12.447   6.366 -0.1349  0.1986  0.4329
   35sM      GN 1483  11.208  12.604   6.199 -0.1573  0.2120 -0.2791
   35sM      GC 1484  11.274  12.693   6.274  0.0418 -0.0330  0.1790
   35sM     BSD 1485  11.566  12.842   6.091 -0.3899  0.1575  0.0293
   35sM      GO 1486  11.114  12.847   6.382 -0.3077 -0.2445  0.1136
   36sV      GN 1487  11.057  12.831   6.149  0.1482 -0.1550  0.1483
   36sV      GC 1488  10.930  12.917   6.165  0.1724  0.1176 -0.1052
   36sV     BCB 1489  10.948   0.020   6.047  0.0102 -0.3260  0.1241
   36sV      GO 1490  10.748  12.758   6.200  0.1788  0.2409 -0.0893
   37sG      GN 1491  10.798  12.871   6.377  0.2394  0.1729 -0.0558
   37sG      GC 1492  10.689  12.816   6.458  0.3748  0.0879 -0.2096
   37sG      GO 1493  10.709  12.575   6.497 -0.3882 -0.2743  0.0273
   38sG      GN 1494  10.651  12.679   6.677 -0.3361 -0.1054 -0.2593
   38sG      GC 1495  10.644  12.540   6.772 -0.3419 -0.1948  0.3157
   38sG      GO 1496  10.567  12.361   6.621  0.0366  0.0638  0.1015
   39sV      GN 1497  10.777  12.320   6.732  0.2429 -0.0489 -0.0953
   39sV      GC 1498  10.818  12.181   6.671 -0.3546 -0.3251 -0.3879
   39sV     BCB 1499  10.891  12.180   6.528 -0.2589 -0.2782  0.0296
   39sV      GO 1500  10.919  12.034   6.832 -0.3542 -0.0993 -0.0280
   40sV      GN 1501  10.696  11.993   6.791  0.1357  0.1178  0.0680
   40sV      GC 1502  10.688  11.872   6.870  0.2451  0.1305 -0.2311
   40sV     BCB 1503  10.553  11.903   6.956 -0.2872  0.3199  0.0026
   40sV      GO 1504  10.711  11.678   6.739 -0.0088  0.0174 -0.0967
  13.00163  13.00163  13.00163
